V -t * -v 1.0a5 -a 0
A -t * -n 1 -p 0 -o 0x7fffffff -c 30 -a 1
A -t * -h 1 -m 1073741823 -s 0
c -t * -i 1 -n Red
c -t * -i 2 -n Blue
n -t * -a 0 -s 0 -S UP -v circle -c black -i black
n -t * -a 1 -s 1 -S UP -v circle -c black -i black
n -t * -a 2 -s 2 -S UP -v circle -c black -i black
l -t * -s 0 -d 1 -S UP -r 1000000 -D 0.050000000000000003 -c black -o right
l -t * -s 1 -d 2 -S UP -r 100000 -D 0.0050000000000000001 -c black -o right
q -t * -s 2 -d 1 -a 0.5
q -t * -s 1 -d 2 -a 0.5
+ -t 1 -s 0 -d 1 -p cbr -e 100 -c 1 -i 0 -a 1 -x {0.0 2.0 0 ------- null}
- -t 1 -s 0 -d 1 -p cbr -e 100 -c 1 -i 0 -a 1 -x {0.0 2.0 0 ------- null}
h -t 1 -s 0 -d 1 -p cbr -e 100 -c 1 -i 0 -a 1 -x {0.0 2.0 -1 ------- null}
+ -t 1.005 -s 0 -d 1 -p cbr -e 100 -c 1 -i 1 -a 1 -x {0.0 2.0 1 ------- null}
- -t 1.005 -s 0 -d 1 -p cbr -e 100 -c 1 -i 1 -a 1 -x {0.0 2.0 1 ------- null}
h -t 1.005 -s 0 -d 1 -p cbr -e 100 -c 1 -i 1 -a 1 -x {0.0 2.0 -1 ------- null}
+ -t 1.01 -s 0 -d 1 -p cbr -e 100 -c 1 -i 2 -a 1 -x {0.0 2.0 2 ------- null}
- -t 1.01 -s 0 -d 1 -p cbr -e 100 -c 1 -i 2 -a 1 -x {0.0 2.0 2 ------- null}
h -t 1.01 -s 0 -d 1 -p cbr -e 100 -c 1 -i 2 -a 1 -x {0.0 2.0 -1 ------- null}
+ -t 1.015 -s 0 -d 1 -p cbr -e 100 -c 1 -i 3 -a 1 -x {0.0 2.0 3 ------- null}
- -t 1.015 -s 0 -d 1 -p cbr -e 100 -c 1 -i 3 -a 1 -x {0.0 2.0 3 ------- null}
h -t 1.015 -s 0 -d 1 -p cbr -e 100 -c 1 -i 3 -a 1 -x {0.0 2.0 -1 ------- null}
+ -t 1.02 -s 0 -d 1 -p cbr -e 100 -c 1 -i 4 -a 1 -x {0.0 2.0 4 ------- null}
- -t 1.02 -s 0 -d 1 -p cbr -e 100 -c 1 -i 4 -a 1 -x {0.0 2.0 4 ------- null}
h -t 1.02 -s 0 -d 1 -p cbr -e 100 -c 1 -i 4 -a 1 -x {0.0 2.0 -1 ------- null}
+ -t 1.025 -s 0 -d 1 -p cbr -e 100 -c 1 -i 5 -a 1 -x {0.0 2.0 5 ------- null}
- -t 1.025 -s 0 -d 1 -p cbr -e 100 -c 1 -i 5 -a 1 -x {0.0 2.0 5 ------- null}
h -t 1.025 -s 0 -d 1 -p cbr -e 100 -c 1 -i 5 -a 1 -x {0.0 2.0 -1 ------- null}
+ -t 1.03 -s 0 -d 1 -p cbr -e 100 -c 1 -i 6 -a 1 -x {0.0 2.0 6 ------- null}
- -t 1.03 -s 0 -d 1 -p cbr -e 100 -c 1 -i 6 -a 1 -x {0.0 2.0 6 ------- null}
h -t 1.03 -s 0 -d 1 -p cbr -e 100 -c 1 -i 6 -a 1 -x {0.0 2.0 -1 ------- null}
+ -t 1.035 -s 0 -d 1 -p cbr -e 100 -c 1 -i 7 -a 1 -x {0.0 2.0 7 ------- null}
- -t 1.035 -s 0 -d 1 -p cbr -e 100 -c 1 -i 7 -a 1 -x {0.0 2.0 7 ------- null}
h -t 1.035 -s 0 -d 1 -p cbr -e 100 -c 1 -i 7 -a 1 -x {0.0 2.0 -1 ------- null}
+ -t 1.04 -s 0 -d 1 -p cbr -e 100 -c 1 -i 8 -a 1 -x {0.0 2.0 8 ------- null}
- -t 1.04 -s 0 -d 1 -p cbr -e 100 -c 1 -i 8 -a 1 -x {0.0 2.0 8 ------- null}
h -t 1.04 -s 0 -d 1 -p cbr -e 100 -c 1 -i 8 -a 1 -x {0.0 2.0 -1 ------- null}
+ -t 1.045 -s 0 -d 1 -p cbr -e 100 -c 1 -i 9 -a 1 -x {0.0 2.0 9 ------- null}
- -t 1.045 -s 0 -d 1 -p cbr -e 100 -c 1 -i 9 -a 1 -x {0.0 2.0 9 ------- null}
h -t 1.045 -s 0 -d 1 -p cbr -e 100 -c 1 -i 9 -a 1 -x {0.0 2.0 -1 ------- null}
+ -t 1.05 -s 0 -d 1 -p cbr -e 100 -c 1 -i 10 -a 1 -x {0.0 2.0 10 ------- null}
- -t 1.05 -s 0 -d 1 -p cbr -e 100 -c 1 -i 10 -a 1 -x {0.0 2.0 10 ------- null}
h -t 1.05 -s 0 -d 1 -p cbr -e 100 -c 1 -i 10 -a 1 -x {0.0 2.0 -1 ------- null}
r -t 1.0508 -s 0 -d 1 -p cbr -e 100 -c 1 -i 0 -a 1 -x {0.0 2.0 0 ------- null}
+ -t 1.0508 -s 1 -d 2 -p cbr -e 100 -c 1 -i 0 -a 1 -x {0.0 2.0 0 ------- null}
- -t 1.0508 -s 1 -d 2 -p cbr -e 100 -c 1 -i 0 -a 1 -x {0.0 2.0 0 ------- null}
h -t 1.0508 -s 1 -d 2 -p cbr -e 100 -c 1 -i 0 -a 1 -x {0.0 2.0 -1 ------- null}
+ -t 1.055 -s 0 -d 1 -p cbr -e 100 -c 1 -i 11 -a 1 -x {0.0 2.0 11 ------- null}
- -t 1.055 -s 0 -d 1 -p cbr -e 100 -c 1 -i 11 -a 1 -x {0.0 2.0 11 ------- null}
h -t 1.055 -s 0 -d 1 -p cbr -e 100 -c 1 -i 11 -a 1 -x {0.0 2.0 -1 ------- null}
r -t 1.0558 -s 0 -d 1 -p cbr -e 100 -c 1 -i 1 -a 1 -x {0.0 2.0 1 ------- null}
+ -t 1.0558 -s 1 -d 2 -p cbr -e 100 -c 1 -i 1 -a 1 -x {0.0 2.0 1 ------- null}
- -t 1.0588 -s 1 -d 2 -p cbr -e 100 -c 1 -i 1 -a 1 -x {0.0 2.0 1 ------- null}
h -t 1.0588 -s 1 -d 2 -p cbr -e 100 -c 1 -i 1 -a 1 -x {0.0 2.0 -1 ------- null}
+ -t 1.06 -s 0 -d 1 -p cbr -e 100 -c 1 -i 12 -a 1 -x {0.0 2.0 12 ------- null}
- -t 1.06 -s 0 -d 1 -p cbr -e 100 -c 1 -i 12 -a 1 -x {0.0 2.0 12 ------- null}
h -t 1.06 -s 0 -d 1 -p cbr -e 100 -c 1 -i 12 -a 1 -x {0.0 2.0 -1 ------- null}
r -t 1.0608 -s 0 -d 1 -p cbr -e 100 -c 1 -i 2 -a 1 -x {0.0 2.0 2 ------- null}
+ -t 1.0608 -s 1 -d 2 -p cbr -e 100 -c 1 -i 2 -a 1 -x {0.0 2.0 2 ------- null}
r -t 1.0638 -s 1 -d 2 -p cbr -e 100 -c 1 -i 0 -a 1 -x {0.0 2.0 0 ------- null}
+ -t 1.065 -s 0 -d 1 -p cbr -e 100 -c 1 -i 13 -a 1 -x {0.0 2.0 13 ------- null}
- -t 1.065 -s 0 -d 1 -p cbr -e 100 -c 1 -i 13 -a 1 -x {0.0 2.0 13 ------- null}
h -t 1.065 -s 0 -d 1 -p cbr -e 100 -c 1 -i 13 -a 1 -x {0.0 2.0 -1 ------- null}
r -t 1.0658 -s 0 -d 1 -p cbr -e 100 -c 1 -i 3 -a 1 -x {0.0 2.0 3 ------- null}
+ -t 1.0658 -s 1 -d 2 -p cbr -e 100 -c 1 -i 3 -a 1 -x {0.0 2.0 3 ------- null}
- -t 1.0668 -s 1 -d 2 -p cbr -e 100 -c 1 -i 2 -a 1 -x {0.0 2.0 2 ------- null}
h -t 1.0668 -s 1 -d 2 -p cbr -e 100 -c 1 -i 2 -a 1 -x {0.0 2.0 -1 ------- null}
+ -t 1.07 -s 0 -d 1 -p cbr -e 100 -c 1 -i 14 -a 1 -x {0.0 2.0 14 ------- null}
- -t 1.07 -s 0 -d 1 -p cbr -e 100 -c 1 -i 14 -a 1 -x {0.0 2.0 14 ------- null}
h -t 1.07 -s 0 -d 1 -p cbr -e 100 -c 1 -i 14 -a 1 -x {0.0 2.0 -1 ------- null}
r -t 1.0708 -s 0 -d 1 -p cbr -e 100 -c 1 -i 4 -a 1 -x {0.0 2.0 4 ------- null}
+ -t 1.0708 -s 1 -d 2 -p cbr -e 100 -c 1 -i 4 -a 1 -x {0.0 2.0 4 ------- null}
r -t 1.0718 -s 1 -d 2 -p cbr -e 100 -c 1 -i 1 -a 1 -x {0.0 2.0 1 ------- null}
- -t 1.0748 -s 1 -d 2 -p cbr -e 100 -c 1 -i 3 -a 1 -x {0.0 2.0 3 ------- null}
h -t 1.0748 -s 1 -d 2 -p cbr -e 100 -c 1 -i 3 -a 1 -x {0.0 2.0 -1 ------- null}
+ -t 1.075 -s 0 -d 1 -p cbr -e 100 -c 1 -i 15 -a 1 -x {0.0 2.0 15 ------- null}
- -t 1.075 -s 0 -d 1 -p cbr -e 100 -c 1 -i 15 -a 1 -x {0.0 2.0 15 ------- null}
h -t 1.075 -s 0 -d 1 -p cbr -e 100 -c 1 -i 15 -a 1 -x {0.0 2.0 -1 ------- null}
r -t 1.0758 -s 0 -d 1 -p cbr -e 100 -c 1 -i 5 -a 1 -x {0.0 2.0 5 ------- null}
+ -t 1.0758 -s 1 -d 2 -p cbr -e 100 -c 1 -i 5 -a 1 -x {0.0 2.0 5 ------- null}
r -t 1.0798 -s 1 -d 2 -p cbr -e 100 -c 1 -i 2 -a 1 -x {0.0 2.0 2 ------- null}
+ -t 1.08 -s 0 -d 1 -p cbr -e 100 -c 1 -i 16 -a 1 -x {0.0 2.0 16 ------- null}
- -t 1.08 -s 0 -d 1 -p cbr -e 100 -c 1 -i 16 -a 1 -x {0.0 2.0 16 ------- null}
h -t 1.08 -s 0 -d 1 -p cbr -e 100 -c 1 -i 16 -a 1 -x {0.0 2.0 -1 ------- null}
r -t 1.0808 -s 0 -d 1 -p cbr -e 100 -c 1 -i 6 -a 1 -x {0.0 2.0 6 ------- null}
+ -t 1.0808 -s 1 -d 2 -p cbr -e 100 -c 1 -i 6 -a 1 -x {0.0 2.0 6 ------- null}
- -t 1.0828 -s 1 -d 2 -p cbr -e 100 -c 1 -i 4 -a 1 -x {0.0 2.0 4 ------- null}
h -t 1.0828 -s 1 -d 2 -p cbr -e 100 -c 1 -i 4 -a 1 -x {0.0 2.0 -1 ------- null}
+ -t 1.085 -s 0 -d 1 -p cbr -e 100 -c 1 -i 17 -a 1 -x {0.0 2.0 17 ------- null}
- -t 1.085 -s 0 -d 1 -p cbr -e 100 -c 1 -i 17 -a 1 -x {0.0 2.0 17 ------- null}
h -t 1.085 -s 0 -d 1 -p cbr -e 100 -c 1 -i 17 -a 1 -x {0.0 2.0 -1 ------- null}
r -t 1.0858 -s 0 -d 1 -p cbr -e 100 -c 1 -i 7 -a 1 -x {0.0 2.0 7 ------- null}
+ -t 1.0858 -s 1 -d 2 -p cbr -e 100 -c 1 -i 7 -a 1 -x {0.0 2.0 7 ------- null}
r -t 1.0878 -s 1 -d 2 -p cbr -e 100 -c 1 -i 3 -a 1 -x {0.0 2.0 3 ------- null}
+ -t 1.09 -s 0 -d 1 -p cbr -e 100 -c 1 -i 18 -a 1 -x {0.0 2.0 18 ------- null}
- -t 1.09 -s 0 -d 1 -p cbr -e 100 -c 1 -i 18 -a 1 -x {0.0 2.0 18 ------- null}
h -t 1.09 -s 0 -d 1 -p cbr -e 100 -c 1 -i 18 -a 1 -x {0.0 2.0 -1 ------- null}
r -t 1.0908 -s 0 -d 1 -p cbr -e 100 -c 1 -i 8 -a 1 -x {0.0 2.0 8 ------- null}
+ -t 1.0908 -s 1 -d 2 -p cbr -e 100 -c 1 -i 8 -a 1 -x {0.0 2.0 8 ------- null}
- -t 1.0908 -s 1 -d 2 -p cbr -e 100 -c 1 -i 5 -a 1 -x {0.0 2.0 5 ------- null}
h -t 1.0908 -s 1 -d 2 -p cbr -e 100 -c 1 -i 5 -a 1 -x {0.0 2.0 -1 ------- null}
+ -t 1.095 -s 0 -d 1 -p cbr -e 100 -c 1 -i 19 -a 1 -x {0.0 2.0 19 ------- null}
- -t 1.095 -s 0 -d 1 -p cbr -e 100 -c 1 -i 19 -a 1 -x {0.0 2.0 19 ------- null}
h -t 1.095 -s 0 -d 1 -p cbr -e 100 -c 1 -i 19 -a 1 -x {0.0 2.0 -1 ------- null}
r -t 1.0958 -s 0 -d 1 -p cbr -e 100 -c 1 -i 9 -a 1 -x {0.0 2.0 9 ------- null}
+ -t 1.0958 -s 1 -d 2 -p cbr -e 100 -c 1 -i 9 -a 1 -x {0.0 2.0 9 ------- null}
r -t 1.0958 -s 1 -d 2 -p cbr -e 100 -c 1 -i 4 -a 1 -x {0.0 2.0 4 ------- null}
- -t 1.0988 -s 1 -d 2 -p cbr -e 100 -c 1 -i 6 -a 1 -x {0.0 2.0 6 ------- null}
h -t 1.0988 -s 1 -d 2 -p cbr -e 100 -c 1 -i 6 -a 1 -x {0.0 2.0 -1 ------- null}
+ -t 1.1 -s 0 -d 1 -p cbr -e 100 -c 1 -i 20 -a 1 -x {0.0 2.0 20 ------- null}
- -t 1.1 -s 0 -d 1 -p cbr -e 100 -c 1 -i 20 -a 1 -x {0.0 2.0 20 ------- null}
h -t 1.1 -s 0 -d 1 -p cbr -e 100 -c 1 -i 20 -a 1 -x {0.0 2.0 -1 ------- null}
r -t 1.1008 -s 0 -d 1 -p cbr -e 100 -c 1 -i 10 -a 1 -x {0.0 2.0 10 ------- null}
+ -t 1.1008 -s 1 -d 2 -p cbr -e 100 -c 1 -i 10 -a 1 -x {0.0 2.0 10 ------- null}
r -t 1.1038 -s 1 -d 2 -p cbr -e 100 -c 1 -i 5 -a 1 -x {0.0 2.0 5 ------- null}
+ -t 1.105 -s 0 -d 1 -p cbr -e 100 -c 1 -i 21 -a 1 -x {0.0 2.0 21 ------- null}
- -t 1.105 -s 0 -d 1 -p cbr -e 100 -c 1 -i 21 -a 1 -x {0.0 2.0 21 ------- null}
h -t 1.105 -s 0 -d 1 -p cbr -e 100 -c 1 -i 21 -a 1 -x {0.0 2.0 -1 ------- null}
r -t 1.1058 -s 0 -d 1 -p cbr -e 100 -c 1 -i 11 -a 1 -x {0.0 2.0 11 ------- null}
+ -t 1.1058 -s 1 -d 2 -p cbr -e 100 -c 1 -i 11 -a 1 -x {0.0 2.0 11 ------- null}
- -t 1.1068 -s 1 -d 2 -p cbr -e 100 -c 1 -i 7 -a 1 -x {0.0 2.0 7 ------- null}
h -t 1.1068 -s 1 -d 2 -p cbr -e 100 -c 1 -i 7 -a 1 -x {0.0 2.0 -1 ------- null}
+ -t 1.11 -s 0 -d 1 -p cbr -e 100 -c 1 -i 22 -a 1 -x {0.0 2.0 22 ------- null}
- -t 1.11 -s 0 -d 1 -p cbr -e 100 -c 1 -i 22 -a 1 -x {0.0 2.0 22 ------- null}
h -t 1.11 -s 0 -d 1 -p cbr -e 100 -c 1 -i 22 -a 1 -x {0.0 2.0 -1 ------- null}
r -t 1.1108 -s 0 -d 1 -p cbr -e 100 -c 1 -i 12 -a 1 -x {0.0 2.0 12 ------- null}
+ -t 1.1108 -s 1 -d 2 -p cbr -e 100 -c 1 -i 12 -a 1 -x {0.0 2.0 12 ------- null}
r -t 1.1118 -s 1 -d 2 -p cbr -e 100 -c 1 -i 6 -a 1 -x {0.0 2.0 6 ------- null}
- -t 1.1148 -s 1 -d 2 -p cbr -e 100 -c 1 -i 8 -a 1 -x {0.0 2.0 8 ------- null}
h -t 1.1148 -s 1 -d 2 -p cbr -e 100 -c 1 -i 8 -a 1 -x {0.0 2.0 -1 ------- null}
+ -t 1.115 -s 0 -d 1 -p cbr -e 100 -c 1 -i 23 -a 1 -x {0.0 2.0 23 ------- null}
- -t 1.115 -s 0 -d 1 -p cbr -e 100 -c 1 -i 23 -a 1 -x {0.0 2.0 23 ------- null}
h -t 1.115 -s 0 -d 1 -p cbr -e 100 -c 1 -i 23 -a 1 -x {0.0 2.0 -1 ------- null}
r -t 1.1158 -s 0 -d 1 -p cbr -e 100 -c 1 -i 13 -a 1 -x {0.0 2.0 13 ------- null}
+ -t 1.1158 -s 1 -d 2 -p cbr -e 100 -c 1 -i 13 -a 1 -x {0.0 2.0 13 ------- null}
r -t 1.1198 -s 1 -d 2 -p cbr -e 100 -c 1 -i 7 -a 1 -x {0.0 2.0 7 ------- null}
+ -t 1.12 -s 0 -d 1 -p cbr -e 100 -c 1 -i 24 -a 1 -x {0.0 2.0 24 ------- null}
- -t 1.12 -s 0 -d 1 -p cbr -e 100 -c 1 -i 24 -a 1 -x {0.0 2.0 24 ------- null}
h -t 1.12 -s 0 -d 1 -p cbr -e 100 -c 1 -i 24 -a 1 -x {0.0 2.0 -1 ------- null}
r -t 1.1208 -s 0 -d 1 -p cbr -e 100 -c 1 -i 14 -a 1 -x {0.0 2.0 14 ------- null}
+ -t 1.1208 -s 1 -d 2 -p cbr -e 100 -c 1 -i 14 -a 1 -x {0.0 2.0 14 ------- null}
- -t 1.1228 -s 1 -d 2 -p cbr -e 100 -c 1 -i 9 -a 1 -x {0.0 2.0 9 ------- null}
h -t 1.1228 -s 1 -d 2 -p cbr -e 100 -c 1 -i 9 -a 1 -x {0.0 2.0 -1 ------- null}
+ -t 1.125 -s 0 -d 1 -p cbr -e 100 -c 1 -i 25 -a 1 -x {0.0 2.0 25 ------- null}
- -t 1.125 -s 0 -d 1 -p cbr -e 100 -c 1 -i 25 -a 1 -x {0.0 2.0 25 ------- null}
h -t 1.125 -s 0 -d 1 -p cbr -e 100 -c 1 -i 25 -a 1 -x {0.0 2.0 -1 ------- null}
r -t 1.1258 -s 0 -d 1 -p cbr -e 100 -c 1 -i 15 -a 1 -x {0.0 2.0 15 ------- null}
+ -t 1.1258 -s 1 -d 2 -p cbr -e 100 -c 1 -i 15 -a 1 -x {0.0 2.0 15 ------- null}
r -t 1.1278 -s 1 -d 2 -p cbr -e 100 -c 1 -i 8 -a 1 -x {0.0 2.0 8 ------- null}
+ -t 1.13 -s 0 -d 1 -p cbr -e 100 -c 1 -i 26 -a 1 -x {0.0 2.0 26 ------- null}
- -t 1.13 -s 0 -d 1 -p cbr -e 100 -c 1 -i 26 -a 1 -x {0.0 2.0 26 ------- null}
h -t 1.13 -s 0 -d 1 -p cbr -e 100 -c 1 -i 26 -a 1 -x {0.0 2.0 -1 ------- null}
r -t 1.1308 -s 0 -d 1 -p cbr -e 100 -c 1 -i 16 -a 1 -x {0.0 2.0 16 ------- null}
+ -t 1.1308 -s 1 -d 2 -p cbr -e 100 -c 1 -i 16 -a 1 -x {0.0 2.0 16 ------- null}
- -t 1.1308 -s 1 -d 2 -p cbr -e 100 -c 1 -i 10 -a 1 -x {0.0 2.0 10 ------- null}
h -t 1.1308 -s 1 -d 2 -p cbr -e 100 -c 1 -i 10 -a 1 -x {0.0 2.0 -1 ------- null}
+ -t 1.135 -s 0 -d 1 -p cbr -e 100 -c 1 -i 27 -a 1 -x {0.0 2.0 27 ------- null}
- -t 1.135 -s 0 -d 1 -p cbr -e 100 -c 1 -i 27 -a 1 -x {0.0 2.0 27 ------- null}
h -t 1.135 -s 0 -d 1 -p cbr -e 100 -c 1 -i 27 -a 1 -x {0.0 2.0 -1 ------- null}
r -t 1.1358 -s 0 -d 1 -p cbr -e 100 -c 1 -i 17 -a 1 -x {0.0 2.0 17 ------- null}
+ -t 1.1358 -s 1 -d 2 -p cbr -e 100 -c 1 -i 17 -a 1 -x {0.0 2.0 17 ------- null}
r -t 1.1358 -s 1 -d 2 -p cbr -e 100 -c 1 -i 9 -a 1 -x {0.0 2.0 9 ------- null}
- -t 1.1388 -s 1 -d 2 -p cbr -e 100 -c 1 -i 11 -a 1 -x {0.0 2.0 11 ------- null}
h -t 1.1388 -s 1 -d 2 -p cbr -e 100 -c 1 -i 11 -a 1 -x {0.0 2.0 -1 ------- null}
+ -t 1.14 -s 0 -d 1 -p cbr -e 100 -c 1 -i 28 -a 1 -x {0.0 2.0 28 ------- null}
- -t 1.14 -s 0 -d 1 -p cbr -e 100 -c 1 -i 28 -a 1 -x {0.0 2.0 28 ------- null}
h -t 1.14 -s 0 -d 1 -p cbr -e 100 -c 1 -i 28 -a 1 -x {0.0 2.0 -1 ------- null}
r -t 1.1408 -s 0 -d 1 -p cbr -e 100 -c 1 -i 18 -a 1 -x {0.0 2.0 18 ------- null}
+ -t 1.1408 -s 1 -d 2 -p cbr -e 100 -c 1 -i 18 -a 1 -x {0.0 2.0 18 ------- null}
r -t 1.1438 -s 1 -d 2 -p cbr -e 100 -c 1 -i 10 -a 1 -x {0.0 2.0 10 ------- null}
+ -t 1.145 -s 0 -d 1 -p cbr -e 100 -c 1 -i 29 -a 1 -x {0.0 2.0 29 ------- null}
- -t 1.145 -s 0 -d 1 -p cbr -e 100 -c 1 -i 29 -a 1 -x {0.0 2.0 29 ------- null}
h -t 1.145 -s 0 -d 1 -p cbr -e 100 -c 1 -i 29 -a 1 -x {0.0 2.0 -1 ------- null}
r -t 1.1458 -s 0 -d 1 -p cbr -e 100 -c 1 -i 19 -a 1 -x {0.0 2.0 19 ------- null}
+ -t 1.1458 -s 1 -d 2 -p cbr -e 100 -c 1 -i 19 -a 1 -x {0.0 2.0 19 ------- null}
- -t 1.1468 -s 1 -d 2 -p cbr -e 100 -c 1 -i 12 -a 1 -x {0.0 2.0 12 ------- null}
h -t 1.1468 -s 1 -d 2 -p cbr -e 100 -c 1 -i 12 -a 1 -x {0.0 2.0 -1 ------- null}
+ -t 1.15 -s 0 -d 1 -p cbr -e 100 -c 1 -i 30 -a 1 -x {0.0 2.0 30 ------- null}
- -t 1.15 -s 0 -d 1 -p cbr -e 100 -c 1 -i 30 -a 1 -x {0.0 2.0 30 ------- null}
h -t 1.15 -s 0 -d 1 -p cbr -e 100 -c 1 -i 30 -a 1 -x {0.0 2.0 -1 ------- null}
r -t 1.1508 -s 0 -d 1 -p cbr -e 100 -c 1 -i 20 -a 1 -x {0.0 2.0 20 ------- null}
+ -t 1.1508 -s 1 -d 2 -p cbr -e 100 -c 1 -i 20 -a 1 -x {0.0 2.0 20 ------- null}
r -t 1.1518 -s 1 -d 2 -p cbr -e 100 -c 1 -i 11 -a 1 -x {0.0 2.0 11 ------- null}
- -t 1.1548 -s 1 -d 2 -p cbr -e 100 -c 1 -i 13 -a 1 -x {0.0 2.0 13 ------- null}
h -t 1.1548 -s 1 -d 2 -p cbr -e 100 -c 1 -i 13 -a 1 -x {0.0 2.0 -1 ------- null}
+ -t 1.155 -s 0 -d 1 -p cbr -e 100 -c 1 -i 31 -a 1 -x {0.0 2.0 31 ------- null}
- -t 1.155 -s 0 -d 1 -p cbr -e 100 -c 1 -i 31 -a 1 -x {0.0 2.0 31 ------- null}
h -t 1.155 -s 0 -d 1 -p cbr -e 100 -c 1 -i 31 -a 1 -x {0.0 2.0 -1 ------- null}
r -t 1.1558 -s 0 -d 1 -p cbr -e 100 -c 1 -i 21 -a 1 -x {0.0 2.0 21 ------- null}
+ -t 1.1558 -s 1 -d 2 -p cbr -e 100 -c 1 -i 21 -a 1 -x {0.0 2.0 21 ------- null}
r -t 1.1598 -s 1 -d 2 -p cbr -e 100 -c 1 -i 12 -a 1 -x {0.0 2.0 12 ------- null}
+ -t 1.16 -s 0 -d 1 -p cbr -e 100 -c 1 -i 32 -a 1 -x {0.0 2.0 32 ------- null}
- -t 1.16 -s 0 -d 1 -p cbr -e 100 -c 1 -i 32 -a 1 -x {0.0 2.0 32 ------- null}
h -t 1.16 -s 0 -d 1 -p cbr -e 100 -c 1 -i 32 -a 1 -x {0.0 2.0 -1 ------- null}
r -t 1.1608 -s 0 -d 1 -p cbr -e 100 -c 1 -i 22 -a 1 -x {0.0 2.0 22 ------- null}
+ -t 1.1608 -s 1 -d 2 -p cbr -e 100 -c 1 -i 22 -a 1 -x {0.0 2.0 22 ------- null}
- -t 1.1628 -s 1 -d 2 -p cbr -e 100 -c 1 -i 14 -a 1 -x {0.0 2.0 14 ------- null}
h -t 1.1628 -s 1 -d 2 -p cbr -e 100 -c 1 -i 14 -a 1 -x {0.0 2.0 -1 ------- null}
+ -t 1.165 -s 0 -d 1 -p cbr -e 100 -c 1 -i 33 -a 1 -x {0.0 2.0 33 ------- null}
- -t 1.165 -s 0 -d 1 -p cbr -e 100 -c 1 -i 33 -a 1 -x {0.0 2.0 33 ------- null}
h -t 1.165 -s 0 -d 1 -p cbr -e 100 -c 1 -i 33 -a 1 -x {0.0 2.0 -1 ------- null}
r -t 1.1658 -s 0 -d 1 -p cbr -e 100 -c 1 -i 23 -a 1 -x {0.0 2.0 23 ------- null}
+ -t 1.1658 -s 1 -d 2 -p cbr -e 100 -c 1 -i 23 -a 1 -x {0.0 2.0 23 ------- null}
r -t 1.1678 -s 1 -d 2 -p cbr -e 100 -c 1 -i 13 -a 1 -x {0.0 2.0 13 ------- null}
+ -t 1.17 -s 0 -d 1 -p cbr -e 100 -c 1 -i 34 -a 1 -x {0.0 2.0 34 ------- null}
- -t 1.17 -s 0 -d 1 -p cbr -e 100 -c 1 -i 34 -a 1 -x {0.0 2.0 34 ------- null}
h -t 1.17 -s 0 -d 1 -p cbr -e 100 -c 1 -i 34 -a 1 -x {0.0 2.0 -1 ------- null}
r -t 1.1708 -s 0 -d 1 -p cbr -e 100 -c 1 -i 24 -a 1 -x {0.0 2.0 24 ------- null}
+ -t 1.1708 -s 1 -d 2 -p cbr -e 100 -c 1 -i 24 -a 1 -x {0.0 2.0 24 ------- null}
d -t 1.1708 -s 1 -d 2 -p cbr -e 100 -c 1 -i 24 -a 1 -x {0.0 2.0 24 ------- null}
- -t 1.1708 -s 1 -d 2 -p cbr -e 100 -c 1 -i 15 -a 1 -x {0.0 2.0 15 ------- null}
h -t 1.1708 -s 1 -d 2 -p cbr -e 100 -c 1 -i 15 -a 1 -x {0.0 2.0 -1 ------- null}
+ -t 1.175 -s 0 -d 1 -p cbr -e 100 -c 1 -i 35 -a 1 -x {0.0 2.0 35 ------- null}
- -t 1.175 -s 0 -d 1 -p cbr -e 100 -c 1 -i 35 -a 1 -x {0.0 2.0 35 ------- null}
h -t 1.175 -s 0 -d 1 -p cbr -e 100 -c 1 -i 35 -a 1 -x {0.0 2.0 -1 ------- null}
r -t 1.1758 -s 0 -d 1 -p cbr -e 100 -c 1 -i 25 -a 1 -x {0.0 2.0 25 ------- null}
+ -t 1.1758 -s 1 -d 2 -p cbr -e 100 -c 1 -i 25 -a 1 -x {0.0 2.0 25 ------- null}
r -t 1.1758 -s 1 -d 2 -p cbr -e 100 -c 1 -i 14 -a 1 -x {0.0 2.0 14 ------- null}
- -t 1.1788 -s 1 -d 2 -p cbr -e 100 -c 1 -i 16 -a 1 -x {0.0 2.0 16 ------- null}
h -t 1.1788 -s 1 -d 2 -p cbr -e 100 -c 1 -i 16 -a 1 -x {0.0 2.0 -1 ------- null}
+ -t 1.18 -s 0 -d 1 -p cbr -e 100 -c 1 -i 36 -a 1 -x {0.0 2.0 36 ------- null}
- -t 1.18 -s 0 -d 1 -p cbr -e 100 -c 1 -i 36 -a 1 -x {0.0 2.0 36 ------- null}
h -t 1.18 -s 0 -d 1 -p cbr -e 100 -c 1 -i 36 -a 1 -x {0.0 2.0 -1 ------- null}
r -t 1.1808 -s 0 -d 1 -p cbr -e 100 -c 1 -i 26 -a 1 -x {0.0 2.0 26 ------- null}
+ -t 1.1808 -s 1 -d 2 -p cbr -e 100 -c 1 -i 26 -a 1 -x {0.0 2.0 26 ------- null}
r -t 1.1838 -s 1 -d 2 -p cbr -e 100 -c 1 -i 15 -a 1 -x {0.0 2.0 15 ------- null}
+ -t 1.185 -s 0 -d 1 -p cbr -e 100 -c 1 -i 37 -a 1 -x {0.0 2.0 37 ------- null}
- -t 1.185 -s 0 -d 1 -p cbr -e 100 -c 1 -i 37 -a 1 -x {0.0 2.0 37 ------- null}
h -t 1.185 -s 0 -d 1 -p cbr -e 100 -c 1 -i 37 -a 1 -x {0.0 2.0 -1 ------- null}
r -t 1.1858 -s 0 -d 1 -p cbr -e 100 -c 1 -i 27 -a 1 -x {0.0 2.0 27 ------- null}
+ -t 1.1858 -s 1 -d 2 -p cbr -e 100 -c 1 -i 27 -a 1 -x {0.0 2.0 27 ------- null}
d -t 1.1858 -s 1 -d 2 -p cbr -e 100 -c 1 -i 27 -a 1 -x {0.0 2.0 27 ------- null}
- -t 1.1868 -s 1 -d 2 -p cbr -e 100 -c 1 -i 17 -a 1 -x {0.0 2.0 17 ------- null}
h -t 1.1868 -s 1 -d 2 -p cbr -e 100 -c 1 -i 17 -a 1 -x {0.0 2.0 -1 ------- null}
+ -t 1.19 -s 0 -d 1 -p cbr -e 100 -c 1 -i 38 -a 1 -x {0.0 2.0 38 ------- null}
- -t 1.19 -s 0 -d 1 -p cbr -e 100 -c 1 -i 38 -a 1 -x {0.0 2.0 38 ------- null}
h -t 1.19 -s 0 -d 1 -p cbr -e 100 -c 1 -i 38 -a 1 -x {0.0 2.0 -1 ------- null}
r -t 1.1908 -s 0 -d 1 -p cbr -e 100 -c 1 -i 28 -a 1 -x {0.0 2.0 28 ------- null}
+ -t 1.1908 -s 1 -d 2 -p cbr -e 100 -c 1 -i 28 -a 1 -x {0.0 2.0 28 ------- null}
r -t 1.1918 -s 1 -d 2 -p cbr -e 100 -c 1 -i 16 -a 1 -x {0.0 2.0 16 ------- null}
- -t 1.1948 -s 1 -d 2 -p cbr -e 100 -c 1 -i 18 -a 1 -x {0.0 2.0 18 ------- null}
h -t 1.1948 -s 1 -d 2 -p cbr -e 100 -c 1 -i 18 -a 1 -x {0.0 2.0 -1 ------- null}
+ -t 1.195 -s 0 -d 1 -p cbr -e 100 -c 1 -i 39 -a 1 -x {0.0 2.0 39 ------- null}
- -t 1.195 -s 0 -d 1 -p cbr -e 100 -c 1 -i 39 -a 1 -x {0.0 2.0 39 ------- null}
h -t 1.195 -s 0 -d 1 -p cbr -e 100 -c 1 -i 39 -a 1 -x {0.0 2.0 -1 ------- null}
r -t 1.1958 -s 0 -d 1 -p cbr -e 100 -c 1 -i 29 -a 1 -x {0.0 2.0 29 ------- null}
+ -t 1.1958 -s 1 -d 2 -p cbr -e 100 -c 1 -i 29 -a 1 -x {0.0 2.0 29 ------- null}
r -t 1.1998 -s 1 -d 2 -p cbr -e 100 -c 1 -i 17 -a 1 -x {0.0 2.0 17 ------- null}
+ -t 1.2 -s 0 -d 1 -p cbr -e 100 -c 1 -i 40 -a 1 -x {0.0 2.0 40 ------- null}
- -t 1.2 -s 0 -d 1 -p cbr -e 100 -c 1 -i 40 -a 1 -x {0.0 2.0 40 ------- null}
h -t 1.2 -s 0 -d 1 -p cbr -e 100 -c 1 -i 40 -a 1 -x {0.0 2.0 -1 ------- null}
r -t 1.2008 -s 0 -d 1 -p cbr -e 100 -c 1 -i 30 -a 1 -x {0.0 2.0 30 ------- null}
+ -t 1.2008 -s 1 -d 2 -p cbr -e 100 -c 1 -i 30 -a 1 -x {0.0 2.0 30 ------- null}
d -t 1.2008 -s 1 -d 2 -p cbr -e 100 -c 1 -i 30 -a 1 -x {0.0 2.0 30 ------- null}
- -t 1.2028 -s 1 -d 2 -p cbr -e 100 -c 1 -i 19 -a 1 -x {0.0 2.0 19 ------- null}
h -t 1.2028 -s 1 -d 2 -p cbr -e 100 -c 1 -i 19 -a 1 -x {0.0 2.0 -1 ------- null}
+ -t 1.205 -s 0 -d 1 -p cbr -e 100 -c 1 -i 41 -a 1 -x {0.0 2.0 41 ------- null}
- -t 1.205 -s 0 -d 1 -p cbr -e 100 -c 1 -i 41 -a 1 -x {0.0 2.0 41 ------- null}
h -t 1.205 -s 0 -d 1 -p cbr -e 100 -c 1 -i 41 -a 1 -x {0.0 2.0 -1 ------- null}
r -t 1.2058 -s 0 -d 1 -p cbr -e 100 -c 1 -i 31 -a 1 -x {0.0 2.0 31 ------- null}
+ -t 1.2058 -s 1 -d 2 -p cbr -e 100 -c 1 -i 31 -a 1 -x {0.0 2.0 31 ------- null}
r -t 1.2078 -s 1 -d 2 -p cbr -e 100 -c 1 -i 18 -a 1 -x {0.0 2.0 18 ------- null}
+ -t 1.21 -s 0 -d 1 -p cbr -e 100 -c 1 -i 42 -a 1 -x {0.0 2.0 42 ------- null}
- -t 1.21 -s 0 -d 1 -p cbr -e 100 -c 1 -i 42 -a 1 -x {0.0 2.0 42 ------- null}
h -t 1.21 -s 0 -d 1 -p cbr -e 100 -c 1 -i 42 -a 1 -x {0.0 2.0 -1 ------- null}
r -t 1.2108 -s 0 -d 1 -p cbr -e 100 -c 1 -i 32 -a 1 -x {0.0 2.0 32 ------- null}
+ -t 1.2108 -s 1 -d 2 -p cbr -e 100 -c 1 -i 32 -a 1 -x {0.0 2.0 32 ------- null}
d -t 1.2108 -s 1 -d 2 -p cbr -e 100 -c 1 -i 32 -a 1 -x {0.0 2.0 32 ------- null}
- -t 1.2108 -s 1 -d 2 -p cbr -e 100 -c 1 -i 20 -a 1 -x {0.0 2.0 20 ------- null}
h -t 1.2108 -s 1 -d 2 -p cbr -e 100 -c 1 -i 20 -a 1 -x {0.0 2.0 -1 ------- null}
+ -t 1.215 -s 0 -d 1 -p cbr -e 100 -c 1 -i 43 -a 1 -x {0.0 2.0 43 ------- null}
- -t 1.215 -s 0 -d 1 -p cbr -e 100 -c 1 -i 43 -a 1 -x {0.0 2.0 43 ------- null}
h -t 1.215 -s 0 -d 1 -p cbr -e 100 -c 1 -i 43 -a 1 -x {0.0 2.0 -1 ------- null}
r -t 1.2158 -s 0 -d 1 -p cbr -e 100 -c 1 -i 33 -a 1 -x {0.0 2.0 33 ------- null}
+ -t 1.2158 -s 1 -d 2 -p cbr -e 100 -c 1 -i 33 -a 1 -x {0.0 2.0 33 ------- null}
r -t 1.2158 -s 1 -d 2 -p cbr -e 100 -c 1 -i 19 -a 1 -x {0.0 2.0 19 ------- null}
- -t 1.2188 -s 1 -d 2 -p cbr -e 100 -c 1 -i 21 -a 1 -x {0.0 2.0 21 ------- null}
h -t 1.2188 -s 1 -d 2 -p cbr -e 100 -c 1 -i 21 -a 1 -x {0.0 2.0 -1 ------- null}
+ -t 1.22 -s 0 -d 1 -p cbr -e 100 -c 1 -i 44 -a 1 -x {0.0 2.0 44 ------- null}
- -t 1.22 -s 0 -d 1 -p cbr -e 100 -c 1 -i 44 -a 1 -x {0.0 2.0 44 ------- null}
h -t 1.22 -s 0 -d 1 -p cbr -e 100 -c 1 -i 44 -a 1 -x {0.0 2.0 -1 ------- null}
r -t 1.2208 -s 0 -d 1 -p cbr -e 100 -c 1 -i 34 -a 1 -x {0.0 2.0 34 ------- null}
+ -t 1.2208 -s 1 -d 2 -p cbr -e 100 -c 1 -i 34 -a 1 -x {0.0 2.0 34 ------- null}
r -t 1.2238 -s 1 -d 2 -p cbr -e 100 -c 1 -i 20 -a 1 -x {0.0 2.0 20 ------- null}
+ -t 1.225 -s 0 -d 1 -p cbr -e 100 -c 1 -i 45 -a 1 -x {0.0 2.0 45 ------- null}
- -t 1.225 -s 0 -d 1 -p cbr -e 100 -c 1 -i 45 -a 1 -x {0.0 2.0 45 ------- null}
h -t 1.225 -s 0 -d 1 -p cbr -e 100 -c 1 -i 45 -a 1 -x {0.0 2.0 -1 ------- null}
r -t 1.2258 -s 0 -d 1 -p cbr -e 100 -c 1 -i 35 -a 1 -x {0.0 2.0 35 ------- null}
+ -t 1.2258 -s 1 -d 2 -p cbr -e 100 -c 1 -i 35 -a 1 -x {0.0 2.0 35 ------- null}
d -t 1.2258 -s 1 -d 2 -p cbr -e 100 -c 1 -i 35 -a 1 -x {0.0 2.0 35 ------- null}
- -t 1.2268 -s 1 -d 2 -p cbr -e 100 -c 1 -i 22 -a 1 -x {0.0 2.0 22 ------- null}
h -t 1.2268 -s 1 -d 2 -p cbr -e 100 -c 1 -i 22 -a 1 -x {0.0 2.0 -1 ------- null}
+ -t 1.23 -s 0 -d 1 -p cbr -e 100 -c 1 -i 46 -a 1 -x {0.0 2.0 46 ------- null}
- -t 1.23 -s 0 -d 1 -p cbr -e 100 -c 1 -i 46 -a 1 -x {0.0 2.0 46 ------- null}
h -t 1.23 -s 0 -d 1 -p cbr -e 100 -c 1 -i 46 -a 1 -x {0.0 2.0 -1 ------- null}
r -t 1.2308 -s 0 -d 1 -p cbr -e 100 -c 1 -i 36 -a 1 -x {0.0 2.0 36 ------- null}
+ -t 1.2308 -s 1 -d 2 -p cbr -e 100 -c 1 -i 36 -a 1 -x {0.0 2.0 36 ------- null}
r -t 1.2318 -s 1 -d 2 -p cbr -e 100 -c 1 -i 21 -a 1 -x {0.0 2.0 21 ------- null}
- -t 1.2348 -s 1 -d 2 -p cbr -e 100 -c 1 -i 23 -a 1 -x {0.0 2.0 23 ------- null}
h -t 1.2348 -s 1 -d 2 -p cbr -e 100 -c 1 -i 23 -a 1 -x {0.0 2.0 -1 ------- null}
+ -t 1.23499999999999 -s 0 -d 1 -p cbr -e 100 -c 1 -i 47 -a 1 -x {0.0 2.0 47 ------- null}
- -t 1.23499999999999 -s 0 -d 1 -p cbr -e 100 -c 1 -i 47 -a 1 -x {0.0 2.0 47 ------- null}
h -t 1.23499999999999 -s 0 -d 1 -p cbr -e 100 -c 1 -i 47 -a 1 -x {0.0 2.0 -1 ------- null}
r -t 1.2358 -s 0 -d 1 -p cbr -e 100 -c 1 -i 37 -a 1 -x {0.0 2.0 37 ------- null}
+ -t 1.2358 -s 1 -d 2 -p cbr -e 100 -c 1 -i 37 -a 1 -x {0.0 2.0 37 ------- null}
r -t 1.2398 -s 1 -d 2 -p cbr -e 100 -c 1 -i 22 -a 1 -x {0.0 2.0 22 ------- null}
+ -t 1.23999999999999 -s 0 -d 1 -p cbr -e 100 -c 1 -i 48 -a 1 -x {0.0 2.0 48 ------- null}
- -t 1.23999999999999 -s 0 -d 1 -p cbr -e 100 -c 1 -i 48 -a 1 -x {0.0 2.0 48 ------- null}
h -t 1.23999999999999 -s 0 -d 1 -p cbr -e 100 -c 1 -i 48 -a 1 -x {0.0 2.0 -1 ------- null}
r -t 1.2408 -s 0 -d 1 -p cbr -e 100 -c 1 -i 38 -a 1 -x {0.0 2.0 38 ------- null}
+ -t 1.2408 -s 1 -d 2 -p cbr -e 100 -c 1 -i 38 -a 1 -x {0.0 2.0 38 ------- null}
d -t 1.2408 -s 1 -d 2 -p cbr -e 100 -c 1 -i 38 -a 1 -x {0.0 2.0 38 ------- null}
- -t 1.2428 -s 1 -d 2 -p cbr -e 100 -c 1 -i 25 -a 1 -x {0.0 2.0 25 ------- null}
h -t 1.2428 -s 1 -d 2 -p cbr -e 100 -c 1 -i 25 -a 1 -x {0.0 2.0 -1 ------- null}
+ -t 1.24499999999999 -s 0 -d 1 -p cbr -e 100 -c 1 -i 49 -a 1 -x {0.0 2.0 49 ------- null}
- -t 1.24499999999999 -s 0 -d 1 -p cbr -e 100 -c 1 -i 49 -a 1 -x {0.0 2.0 49 ------- null}
h -t 1.24499999999999 -s 0 -d 1 -p cbr -e 100 -c 1 -i 49 -a 1 -x {0.0 2.0 -1 ------- null}
r -t 1.2458 -s 0 -d 1 -p cbr -e 100 -c 1 -i 39 -a 1 -x {0.0 2.0 39 ------- null}
+ -t 1.2458 -s 1 -d 2 -p cbr -e 100 -c 1 -i 39 -a 1 -x {0.0 2.0 39 ------- null}
r -t 1.2478 -s 1 -d 2 -p cbr -e 100 -c 1 -i 23 -a 1 -x {0.0 2.0 23 ------- null}
+ -t 1.24999999999999 -s 0 -d 1 -p cbr -e 100 -c 1 -i 50 -a 1 -x {0.0 2.0 50 ------- null}
- -t 1.24999999999999 -s 0 -d 1 -p cbr -e 100 -c 1 -i 50 -a 1 -x {0.0 2.0 50 ------- null}
h -t 1.24999999999999 -s 0 -d 1 -p cbr -e 100 -c 1 -i 50 -a 1 -x {0.0 2.0 -1 ------- null}
r -t 1.2508 -s 0 -d 1 -p cbr -e 100 -c 1 -i 40 -a 1 -x {0.0 2.0 40 ------- null}
+ -t 1.2508 -s 1 -d 2 -p cbr -e 100 -c 1 -i 40 -a 1 -x {0.0 2.0 40 ------- null}
d -t 1.2508 -s 1 -d 2 -p cbr -e 100 -c 1 -i 40 -a 1 -x {0.0 2.0 40 ------- null}
- -t 1.2508 -s 1 -d 2 -p cbr -e 100 -c 1 -i 26 -a 1 -x {0.0 2.0 26 ------- null}
h -t 1.2508 -s 1 -d 2 -p cbr -e 100 -c 1 -i 26 -a 1 -x {0.0 2.0 -1 ------- null}
+ -t 1.25499999999999 -s 0 -d 1 -p cbr -e 100 -c 1 -i 51 -a 1 -x {0.0 2.0 51 ------- null}
- -t 1.25499999999999 -s 0 -d 1 -p cbr -e 100 -c 1 -i 51 -a 1 -x {0.0 2.0 51 ------- null}
h -t 1.25499999999999 -s 0 -d 1 -p cbr -e 100 -c 1 -i 51 -a 1 -x {0.0 2.0 -1 ------- null}
r -t 1.2558 -s 0 -d 1 -p cbr -e 100 -c 1 -i 41 -a 1 -x {0.0 2.0 41 ------- null}
+ -t 1.2558 -s 1 -d 2 -p cbr -e 100 -c 1 -i 41 -a 1 -x {0.0 2.0 41 ------- null}
r -t 1.2558 -s 1 -d 2 -p cbr -e 100 -c 1 -i 25 -a 1 -x {0.0 2.0 25 ------- null}
- -t 1.2588 -s 1 -d 2 -p cbr -e 100 -c 1 -i 28 -a 1 -x {0.0 2.0 28 ------- null}
h -t 1.2588 -s 1 -d 2 -p cbr -e 100 -c 1 -i 28 -a 1 -x {0.0 2.0 -1 ------- null}
+ -t 1.25999999999999 -s 0 -d 1 -p cbr -e 100 -c 1 -i 52 -a 1 -x {0.0 2.0 52 ------- null}
- -t 1.25999999999999 -s 0 -d 1 -p cbr -e 100 -c 1 -i 52 -a 1 -x {0.0 2.0 52 ------- null}
h -t 1.25999999999999 -s 0 -d 1 -p cbr -e 100 -c 1 -i 52 -a 1 -x {0.0 2.0 -1 ------- null}
r -t 1.2608 -s 0 -d 1 -p cbr -e 100 -c 1 -i 42 -a 1 -x {0.0 2.0 42 ------- null}
+ -t 1.2608 -s 1 -d 2 -p cbr -e 100 -c 1 -i 42 -a 1 -x {0.0 2.0 42 ------- null}
r -t 1.2638 -s 1 -d 2 -p cbr -e 100 -c 1 -i 26 -a 1 -x {0.0 2.0 26 ------- null}
+ -t 1.26499999999999 -s 0 -d 1 -p cbr -e 100 -c 1 -i 53 -a 1 -x {0.0 2.0 53 ------- null}
- -t 1.26499999999999 -s 0 -d 1 -p cbr -e 100 -c 1 -i 53 -a 1 -x {0.0 2.0 53 ------- null}
h -t 1.26499999999999 -s 0 -d 1 -p cbr -e 100 -c 1 -i 53 -a 1 -x {0.0 2.0 -1 ------- null}
r -t 1.2658 -s 0 -d 1 -p cbr -e 100 -c 1 -i 43 -a 1 -x {0.0 2.0 43 ------- null}
+ -t 1.2658 -s 1 -d 2 -p cbr -e 100 -c 1 -i 43 -a 1 -x {0.0 2.0 43 ------- null}
d -t 1.2658 -s 1 -d 2 -p cbr -e 100 -c 1 -i 43 -a 1 -x {0.0 2.0 43 ------- null}
- -t 1.2668 -s 1 -d 2 -p cbr -e 100 -c 1 -i 29 -a 1 -x {0.0 2.0 29 ------- null}
h -t 1.2668 -s 1 -d 2 -p cbr -e 100 -c 1 -i 29 -a 1 -x {0.0 2.0 -1 ------- null}
+ -t 1.26999999999999 -s 0 -d 1 -p cbr -e 100 -c 1 -i 54 -a 1 -x {0.0 2.0 54 ------- null}
- -t 1.26999999999999 -s 0 -d 1 -p cbr -e 100 -c 1 -i 54 -a 1 -x {0.0 2.0 54 ------- null}
h -t 1.26999999999999 -s 0 -d 1 -p cbr -e 100 -c 1 -i 54 -a 1 -x {0.0 2.0 -1 ------- null}
r -t 1.2708 -s 0 -d 1 -p cbr -e 100 -c 1 -i 44 -a 1 -x {0.0 2.0 44 ------- null}
+ -t 1.2708 -s 1 -d 2 -p cbr -e 100 -c 1 -i 44 -a 1 -x {0.0 2.0 44 ------- null}
r -t 1.2718 -s 1 -d 2 -p cbr -e 100 -c 1 -i 28 -a 1 -x {0.0 2.0 28 ------- null}
- -t 1.2748 -s 1 -d 2 -p cbr -e 100 -c 1 -i 31 -a 1 -x {0.0 2.0 31 ------- null}
h -t 1.2748 -s 1 -d 2 -p cbr -e 100 -c 1 -i 31 -a 1 -x {0.0 2.0 -1 ------- null}
+ -t 1.27499999999999 -s 0 -d 1 -p cbr -e 100 -c 1 -i 55 -a 1 -x {0.0 2.0 55 ------- null}
- -t 1.27499999999999 -s 0 -d 1 -p cbr -e 100 -c 1 -i 55 -a 1 -x {0.0 2.0 55 ------- null}
h -t 1.27499999999999 -s 0 -d 1 -p cbr -e 100 -c 1 -i 55 -a 1 -x {0.0 2.0 -1 ------- null}
r -t 1.2758 -s 0 -d 1 -p cbr -e 100 -c 1 -i 45 -a 1 -x {0.0 2.0 45 ------- null}
+ -t 1.2758 -s 1 -d 2 -p cbr -e 100 -c 1 -i 45 -a 1 -x {0.0 2.0 45 ------- null}
r -t 1.2798 -s 1 -d 2 -p cbr -e 100 -c 1 -i 29 -a 1 -x {0.0 2.0 29 ------- null}
+ -t 1.27999999999999 -s 0 -d 1 -p cbr -e 100 -c 1 -i 56 -a 1 -x {0.0 2.0 56 ------- null}
- -t 1.27999999999999 -s 0 -d 1 -p cbr -e 100 -c 1 -i 56 -a 1 -x {0.0 2.0 56 ------- null}
h -t 1.27999999999999 -s 0 -d 1 -p cbr -e 100 -c 1 -i 56 -a 1 -x {0.0 2.0 -1 ------- null}
r -t 1.2808 -s 0 -d 1 -p cbr -e 100 -c 1 -i 46 -a 1 -x {0.0 2.0 46 ------- null}
+ -t 1.2808 -s 1 -d 2 -p cbr -e 100 -c 1 -i 46 -a 1 -x {0.0 2.0 46 ------- null}
d -t 1.2808 -s 1 -d 2 -p cbr -e 100 -c 1 -i 46 -a 1 -x {0.0 2.0 46 ------- null}
- -t 1.2828 -s 1 -d 2 -p cbr -e 100 -c 1 -i 33 -a 1 -x {0.0 2.0 33 ------- null}
h -t 1.2828 -s 1 -d 2 -p cbr -e 100 -c 1 -i 33 -a 1 -x {0.0 2.0 -1 ------- null}
+ -t 1.28499999999999 -s 0 -d 1 -p cbr -e 100 -c 1 -i 57 -a 1 -x {0.0 2.0 57 ------- null}
- -t 1.28499999999999 -s 0 -d 1 -p cbr -e 100 -c 1 -i 57 -a 1 -x {0.0 2.0 57 ------- null}