+ 1 0 1 cbr 100 ------- 1 0.0 2.0 0 0
- 1 0 1 cbr 100 ------- 1 0.0 2.0 0 0
+ 1.005 0 1 cbr 100 ------- 1 0.0 2.0 1 1
- 1.005 0 1 cbr 100 ------- 1 0.0 2.0 1 1
+ 1.01 0 1 cbr 100 ------- 1 0.0 2.0 2 2
- 1.01 0 1 cbr 100 ------- 1 0.0 2.0 2 2
+ 1.015 0 1 cbr 100 ------- 1 0.0 2.0 3 3
- 1.015 0 1 cbr 100 ------- 1 0.0 2.0 3 3
+ 1.02 0 1 cbr 100 ------- 1 0.0 2.0 4 4
- 1.02 0 1 cbr 100 ------- 1 0.0 2.0 4 4
+ 1.025 0 1 cbr 100 ------- 1 0.0 2.0 5 5
- 1.025 0 1 cbr 100 ------- 1 0.0 2.0 5 5
+ 1.03 0 1 cbr 100 ------- 1 0.0 2.0 6 6
- 1.03 0 1 cbr 100 ------- 1 0.0 2.0 6 6
+ 1.035 0 1 cbr 100 ------- 1 0.0 2.0 7 7
- 1.035 0 1 cbr 100 ------- 1 0.0 2.0 7 7
+ 1.04 0 1 cbr 100 ------- 1 0.0 2.0 8 8
- 1.04 0 1 cbr 100 ------- 1 0.0 2.0 8 8
+ 1.045 0 1 cbr 100 ------- 1 0.0 2.0 9 9
- 1.045 0 1 cbr 100 ------- 1 0.0 2.0 9 9
+ 1.05 0 1 cbr 100 ------- 1 0.0 2.0 10 10
- 1.05 0 1 cbr 100 ------- 1 0.0 2.0 10 10
r 1.0508 0 1 cbr 100 ------- 1 0.0 2.0 0 0
+ 1.0508 1 2 cbr 100 ------- 1 0.0 2.0 0 0
- 1.0508 1 2 cbr 100 ------- 1 0.0 2.0 0 0
+ 1.055 0 1 cbr 100 ------- 1 0.0 2.0 11 11
- 1.055 0 1 cbr 100 ------- 1 0.0 2.0 11 11
r 1.0558 0 1 cbr 100 ------- 1 0.0 2.0 1 1
+ 1.0558 1 2 cbr 100 ------- 1 0.0 2.0 1 1
- 1.0588 1 2 cbr 100 ------- 1 0.0 2.0 1 1
+ 1.06 0 1 cbr 100 ------- 1 0.0 2.0 12 12
- 1.06 0 1 cbr 100 ------- 1 0.0 2.0 12 12
r 1.0608 0 1 cbr 100 ------- 1 0.0 2.0 2 2
+ 1.0608 1 2 cbr 100 ------- 1 0.0 2.0 2 2
r 1.0638 1 2 cbr 100 ------- 1 0.0 2.0 0 0
+ 1.065 0 1 cbr 100 ------- 1 0.0 2.0 13 13
- 1.065 0 1 cbr 100 ------- 1 0.0 2.0 13 13
r 1.0658 0 1 cbr 100 ------- 1 0.0 2.0 3 3
+ 1.0658 1 2 cbr 100 ------- 1 0.0 2.0 3 3
- 1.0668 1 2 cbr 100 ------- 1 0.0 2.0 2 2
+ 1.07 0 1 cbr 100 ------- 1 0.0 2.0 14 14
- 1.07 0 1 cbr 100 ------- 1 0.0 2.0 14 14
r 1.0708 0 1 cbr 100 ------- 1 0.0 2.0 4 4
+ 1.0708 1 2 cbr 100 ------- 1 0.0 2.0 4 4
r 1.0718 1 2 cbr 100 ------- 1 0.0 2.0 1 1
- 1.0748 1 2 cbr 100 ------- 1 0.0 2.0 3 3
+ 1.075 0 1 cbr 100 ------- 1 0.0 2.0 15 15
- 1.075 0 1 cbr 100 ------- 1 0.0 2.0 15 15
r 1.0758 0 1 cbr 100 ------- 1 0.0 2.0 5 5
+ 1.0758 1 2 cbr 100 ------- 1 0.0 2.0 5 5
r 1.0798 1 2 cbr 100 ------- 1 0.0 2.0 2 2
+ 1.08 0 1 cbr 100 ------- 1 0.0 2.0 16 16
- 1.08 0 1 cbr 100 ------- 1 0.0 2.0 16 16
r 1.0808 0 1 cbr 100 ------- 1 0.0 2.0 6 6
+ 1.0808 1 2 cbr 100 ------- 1 0.0 2.0 6 6
- 1.0828 1 2 cbr 100 ------- 1 0.0 2.0 4 4
+ 1.085 0 1 cbr 100 ------- 1 0.0 2.0 17 17
- 1.085 0 1 cbr 100 ------- 1 0.0 2.0 17 17
r 1.0858 0 1 cbr 100 ------- 1 0.0 2.0 7 7
+ 1.0858 1 2 cbr 100 ------- 1 0.0 2.0 7 7
r 1.0878 1 2 cbr 100 ------- 1 0.0 2.0 3 3
+ 1.09 0 1 cbr 100 ------- 1 0.0 2.0 18 18
- 1.09 0 1 cbr 100 ------- 1 0.0 2.0 18 18
r 1.0908 0 1 cbr 100 ------- 1 0.0 2.0 8 8
+ 1.0908 1 2 cbr 100 ------- 1 0.0 2.0 8 8
- 1.0908 1 2 cbr 100 ------- 1 0.0 2.0 5 5
+ 1.095 0 1 cbr 100 ------- 1 0.0 2.0 19 19
- 1.095 0 1 cbr 100 ------- 1 0.0 2.0 19 19
r 1.0958 0 1 cbr 100 ------- 1 0.0 2.0 9 9
+ 1.0958 1 2 cbr 100 ------- 1 0.0 2.0 9 9
r 1.0958 1 2 cbr 100 ------- 1 0.0 2.0 4 4
- 1.0988 1 2 cbr 100 ------- 1 0.0 2.0 6 6
+ 1.1 0 1 cbr 100 ------- 1 0.0 2.0 20 20
- 1.1 0 1 cbr 100 ------- 1 0.0 2.0 20 20
r 1.1008 0 1 cbr 100 ------- 1 0.0 2.0 10 10
+ 1.1008 1 2 cbr 100 ------- 1 0.0 2.0 10 10
r 1.1038 1 2 cbr 100 ------- 1 0.0 2.0 5 5
+ 1.105 0 1 cbr 100 ------- 1 0.0 2.0 21 21
- 1.105 0 1 cbr 100 ------- 1 0.0 2.0 21 21
r 1.1058 0 1 cbr 100 ------- 1 0.0 2.0 11 11
+ 1.1058 1 2 cbr 100 ------- 1 0.0 2.0 11 11
- 1.1068 1 2 cbr 100 ------- 1 0.0 2.0 7 7
+ 1.11 0 1 cbr 100 ------- 1 0.0 2.0 22 22
- 1.11 0 1 cbr 100 ------- 1 0.0 2.0 22 22
r 1.1108 0 1 cbr 100 ------- 1 0.0 2.0 12 12
+ 1.1108 1 2 cbr 100 ------- 1 0.0 2.0 12 12
r 1.1118 1 2 cbr 100 ------- 1 0.0 2.0 6 6
- 1.1148 1 2 cbr 100 ------- 1 0.0 2.0 8 8
+ 1.115 0 1 cbr 100 ------- 1 0.0 2.0 23 23
- 1.115 0 1 cbr 100 ------- 1 0.0 2.0 23 23
r 1.1158 0 1 cbr 100 ------- 1 0.0 2.0 13 13
+ 1.1158 1 2 cbr 100 ------- 1 0.0 2.0 13 13
r 1.1198 1 2 cbr 100 ------- 1 0.0 2.0 7 7
+ 1.12 0 1 cbr 100 ------- 1 0.0 2.0 24 24
- 1.12 0 1 cbr 100 ------- 1 0.0 2.0 24 24
r 1.1208 0 1 cbr 100 ------- 1 0.0 2.0 14 14
+ 1.1208 1 2 cbr 100 ------- 1 0.0 2.0 14 14
- 1.1228 1 2 cbr 100 ------- 1 0.0 2.0 9 9
+ 1.125 0 1 cbr 100 ------- 1 0.0 2.0 25 25
- 1.125 0 1 cbr 100 ------- 1 0.0 2.0 25 25
r 1.1258 0 1 cbr 100 ------- 1 0.0 2.0 15 15
+ 1.1258 1 2 cbr 100 ------- 1 0.0 2.0 15 15
r 1.1278 1 2 cbr 100 ------- 1 0.0 2.0 8 8
+ 1.13 0 1 cbr 100 ------- 1 0.0 2.0 26 26
- 1.13 0 1 cbr 100 ------- 1 0.0 2.0 26 26
r 1.1308 0 1 cbr 100 ------- 1 0.0 2.0 16 16
+ 1.1308 1 2 cbr 100 ------- 1 0.0 2.0 16 16
- 1.1308 1 2 cbr 100 ------- 1 0.0 2.0 10 10
+ 1.135 0 1 cbr 100 ------- 1 0.0 2.0 27 27
- 1.135 0 1 cbr 100 ------- 1 0.0 2.0 27 27
r 1.1358 0 1 cbr 100 ------- 1 0.0 2.0 17 17
+ 1.1358 1 2 cbr 100 ------- 1 0.0 2.0 17 17
r 1.1358 1 2 cbr 100 ------- 1 0.0 2.0 9 9
- 1.1388 1 2 cbr 100 ------- 1 0.0 2.0 11 11
+ 1.14 0 1 cbr 100 ------- 1 0.0 2.0 28 28
- 1.14 0 1 cbr 100 ------- 1 0.0 2.0 28 28
r 1.1408 0 1 cbr 100 ------- 1 0.0 2.0 18 18
+ 1.1408 1 2 cbr 100 ------- 1 0.0 2.0 18 18
r 1.1438 1 2 cbr 100 ------- 1 0.0 2.0 10 10
+ 1.145 0 1 cbr 100 ------- 1 0.0 2.0 29 29
- 1.145 0 1 cbr 100 ------- 1 0.0 2.0 29 29
r 1.1458 0 1 cbr 100 ------- 1 0.0 2.0 19 19
+ 1.1458 1 2 cbr 100 ------- 1 0.0 2.0 19 19
- 1.1468 1 2 cbr 100 ------- 1 0.0 2.0 12 12
+ 1.15 0 1 cbr 100 ------- 1 0.0 2.0 30 30
- 1.15 0 1 cbr 100 ------- 1 0.0 2.0 30 30
r 1.1508 0 1 cbr 100 ------- 1 0.0 2.0 20 20
+ 1.1508 1 2 cbr 100 ------- 1 0.0 2.0 20 20
r 1.1518 1 2 cbr 100 ------- 1 0.0 2.0 11 11
- 1.1548 1 2 cbr 100 ------- 1 0.0 2.0 13 13
+ 1.155 0 1 cbr 100 ------- 1 0.0 2.0 31 31
- 1.155 0 1 cbr 100 ------- 1 0.0 2.0 31 31
r 1.1558 0 1 cbr 100 ------- 1 0.0 2.0 21 21
+ 1.1558 1 2 cbr 100 ------- 1 0.0 2.0 21 21
r 1.1598 1 2 cbr 100 ------- 1 0.0 2.0 12 12
+ 1.16 0 1 cbr 100 ------- 1 0.0 2.0 32 32
- 1.16 0 1 cbr 100 ------- 1 0.0 2.0 32 32
r 1.1608 0 1 cbr 100 ------- 1 0.0 2.0 22 22
+ 1.1608 1 2 cbr 100 ------- 1 0.0 2.0 22 22
- 1.1628 1 2 cbr 100 ------- 1 0.0 2.0 14 14
+ 1.165 0 1 cbr 100 ------- 1 0.0 2.0 33 33
- 1.165 0 1 cbr 100 ------- 1 0.0 2.0 33 33
r 1.1658 0 1 cbr 100 ------- 1 0.0 2.0 23 23
+ 1.1658 1 2 cbr 100 ------- 1 0.0 2.0 23 23
r 1.1678 1 2 cbr 100 ------- 1 0.0 2.0 13 13
+ 1.17 0 1 cbr 100 ------- 1 0.0 2.0 34 34
- 1.17 0 1 cbr 100 ------- 1 0.0 2.0 34 34
r 1.1708 0 1 cbr 100 ------- 1 0.0 2.0 24 24
+ 1.1708 1 2 cbr 100 ------- 1 0.0 2.0 24 24
d 1.1708 1 2 cbr 100 ------- 1 0.0 2.0 24 24
- 1.1708 1 2 cbr 100 ------- 1 0.0 2.0 15 15
+ 1.175 0 1 cbr 100 ------- 1 0.0 2.0 35 35
- 1.175 0 1 cbr 100 ------- 1 0.0 2.0 35 35
r 1.1758 0 1 cbr 100 ------- 1 0.0 2.0 25 25
+ 1.1758 1 2 cbr 100 ------- 1 0.0 2.0 25 25
r 1.1758 1 2 cbr 100 ------- 1 0.0 2.0 14 14
- 1.1788 1 2 cbr 100 ------- 1 0.0 2.0 16 16
+ 1.18 0 1 cbr 100 ------- 1 0.0 2.0 36 36
- 1.18 0 1 cbr 100 ------- 1 0.0 2.0 36 36
r 1.1808 0 1 cbr 100 ------- 1 0.0 2.0 26 26
+ 1.1808 1 2 cbr 100 ------- 1 0.0 2.0 26 26
r 1.1838 1 2 cbr 100 ------- 1 0.0 2.0 15 15
+ 1.185 0 1 cbr 100 ------- 1 0.0 2.0 37 37
- 1.185 0 1 cbr 100 ------- 1 0.0 2.0 37 37
r 1.1858 0 1 cbr 100 ------- 1 0.0 2.0 27 27
+ 1.1858 1 2 cbr 100 ------- 1 0.0 2.0 27 27
d 1.1858 1 2 cbr 100 ------- 1 0.0 2.0 27 27
- 1.1868 1 2 cbr 100 ------- 1 0.0 2.0 17 17
+ 1.19 0 1 cbr 100 ------- 1 0.0 2.0 38 38
- 1.19 0 1 cbr 100 ------- 1 0.0 2.0 38 38
r 1.1908 0 1 cbr 100 ------- 1 0.0 2.0 28 28
+ 1.1908 1 2 cbr 100 ------- 1 0.0 2.0 28 28
r 1.1918 1 2 cbr 100 ------- 1 0.0 2.0 16 16
- 1.1948 1 2 cbr 100 ------- 1 0.0 2.0 18 18
+ 1.195 0 1 cbr 100 ------- 1 0.0 2.0 39 39
- 1.195 0 1 cbr 100 ------- 1 0.0 2.0 39 39
r 1.1958 0 1 cbr 100 ------- 1 0.0 2.0 29 29
+ 1.1958 1 2 cbr 100 ------- 1 0.0 2.0 29 29
r 1.1998 1 2 cbr 100 ------- 1 0.0 2.0 17 17
+ 1.2 0 1 cbr 100 ------- 1 0.0 2.0 40 40
- 1.2 0 1 cbr 100 ------- 1 0.0 2.0 40 40
r 1.2008 0 1 cbr 100 ------- 1 0.0 2.0 30 30
+ 1.2008 1 2 cbr 100 ------- 1 0.0 2.0 30 30
d 1.2008 1 2 cbr 100 ------- 1 0.0 2.0 30 30
- 1.2028 1 2 cbr 100 ------- 1 0.0 2.0 19 19
+ 1.205 0 1 cbr 100 ------- 1 0.0 2.0 41 41
- 1.205 0 1 cbr 100 ------- 1 0.0 2.0 41 41
r 1.2058 0 1 cbr 100 ------- 1 0.0 2.0 31 31
+ 1.2058 1 2 cbr 100 ------- 1 0.0 2.0 31 31
r 1.2078 1 2 cbr 100 ------- 1 0.0 2.0 18 18
+ 1.21 0 1 cbr 100 ------- 1 0.0 2.0 42 42
- 1.21 0 1 cbr 100 ------- 1 0.0 2.0 42 42
r 1.2108 0 1 cbr 100 ------- 1 0.0 2.0 32 32
+ 1.2108 1 2 cbr 100 ------- 1 0.0 2.0 32 32
d 1.2108 1 2 cbr 100 ------- 1 0.0 2.0 32 32
- 1.2108 1 2 cbr 100 ------- 1 0.0 2.0 20 20
+ 1.215 0 1 cbr 100 ------- 1 0.0 2.0 43 43
- 1.215 0 1 cbr 100 ------- 1 0.0 2.0 43 43
r 1.2158 0 1 cbr 100 ------- 1 0.0 2.0 33 33
+ 1.2158 1 2 cbr 100 ------- 1 0.0 2.0 33 33
r 1.2158 1 2 cbr 100 ------- 1 0.0 2.0 19 19
- 1.2188 1 2 cbr 100 ------- 1 0.0 2.0 21 21
+ 1.22 0 1 cbr 100 ------- 1 0.0 2.0 44 44
- 1.22 0 1 cbr 100 ------- 1 0.0 2.0 44 44
r 1.2208 0 1 cbr 100 ------- 1 0.0 2.0 34 34
+ 1.2208 1 2 cbr 100 ------- 1 0.0 2.0 34 34
r 1.2238 1 2 cbr 100 ------- 1 0.0 2.0 20 20
+ 1.225 0 1 cbr 100 ------- 1 0.0 2.0 45 45
- 1.225 0 1 cbr 100 ------- 1 0.0 2.0 45 45
r 1.2258 0 1 cbr 100 ------- 1 0.0 2.0 35 35
+ 1.2258 1 2 cbr 100 ------- 1 0.0 2.0 35 35
d 1.2258 1 2 cbr 100 ------- 1 0.0 2.0 35 35
- 1.2268 1 2 cbr 100 ------- 1 0.0 2.0 22 22
+ 1.23 0 1 cbr 100 ------- 1 0.0 2.0 46 46
- 1.23 0 1 cbr 100 ------- 1 0.0 2.0 46 46
r 1.2308 0 1 cbr 100 ------- 1 0.0 2.0 36 36
+ 1.2308 1 2 cbr 100 ------- 1 0.0 2.0 36 36
r 1.2318 1 2 cbr 100 ------- 1 0.0 2.0 21 21
- 1.2348 1 2 cbr 100 ------- 1 0.0 2.0 23 23
+ 1.235 0 1 cbr 100 ------- 1 0.0 2.0 47 47
- 1.235 0 1 cbr 100 ------- 1 0.0 2.0 47 47
r 1.2358 0 1 cbr 100 ------- 1 0.0 2.0 37 37
+ 1.2358 1 2 cbr 100 ------- 1 0.0 2.0 37 37
r 1.2398 1 2 cbr 100 ------- 1 0.0 2.0 22 22
+ 1.24 0 1 cbr 100 ------- 1 0.0 2.0 48 48
- 1.24 0 1 cbr 100 ------- 1 0.0 2.0 48 48
r 1.2408 0 1 cbr 100 ------- 1 0.0 2.0 38 38
+ 1.2408 1 2 cbr 100 ------- 1 0.0 2.0 38 38
d 1.2408 1 2 cbr 100 ------- 1 0.0 2.0 38 38
- 1.2428 1 2 cbr 100 ------- 1 0.0 2.0 25 25
+ 1.245 0 1 cbr 100 ------- 1 0.0 2.0 49 49
- 1.245 0 1 cbr 100 ------- 1 0.0 2.0 49 49
r 1.2458 0 1 cbr 100 ------- 1 0.0 2.0 39 39
+ 1.2458 1 2 cbr 100 ------- 1 0.0 2.0 39 39
r 1.2478 1 2 cbr 100 ------- 1 0.0 2.0 23 23
+ 1.25 0 1 cbr 100 ------- 1 0.0 2.0 50 50
- 1.25 0 1 cbr 100 ------- 1 0.0 2.0 50 50
r 1.2508 0 1 cbr 100 ------- 1 0.0 2.0 40 40
+ 1.2508 1 2 cbr 100 ------- 1 0.0 2.0 40 40
d 1.2508 1 2 cbr 100 ------- 1 0.0 2.0 40 40
- 1.2508 1 2 cbr 100 ------- 1 0.0 2.0 26 26
+ 1.255 0 1 cbr 100 ------- 1 0.0 2.0 51 51
- 1.255 0 1 cbr 100 ------- 1 0.0 2.0 51 51
r 1.2558 0 1 cbr 100 ------- 1 0.0 2.0 41 41
+ 1.2558 1 2 cbr 100 ------- 1 0.0 2.0 41 41
r 1.2558 1 2 cbr 100 ------- 1 0.0 2.0 25 25
- 1.2588 1 2 cbr 100 ------- 1 0.0 2.0 28 28
+ 1.26 0 1 cbr 100 ------- 1 0.0 2.0 52 52
- 1.26 0 1 cbr 100 ------- 1 0.0 2.0 52 52
r 1.2608 0 1 cbr 100 ------- 1 0.0 2.0 42 42
+ 1.2608 1 2 cbr 100 ------- 1 0.0 2.0 42 42
r 1.2638 1 2 cbr 100 ------- 1 0.0 2.0 26 26
+ 1.265 0 1 cbr 100 ------- 1 0.0 2.0 53 53
- 1.265 0 1 cbr 100 ------- 1 0.0 2.0 53 53
r 1.2658 0 1 cbr 100 ------- 1 0.0 2.0 43 43
+ 1.2658 1 2 cbr 100 ------- 1 0.0 2.0 43 43
d 1.2658 1 2 cbr 100 ------- 1 0.0 2.0 43 43
- 1.2668 1 2 cbr 100 ------- 1 0.0 2.0 29 29
+ 1.27 0 1 cbr 100 ------- 1 0.0 2.0 54 54
- 1.27 0 1 cbr 100 ------- 1 0.0 2.0 54 54
r 1.2708 0 1 cbr 100 ------- 1 0.0 2.0 44 44
+ 1.2708 1 2 cbr 100 ------- 1 0.0 2.0 44 44
r 1.2718 1 2 cbr 100 ------- 1 0.0 2.0 28 28
- 1.2748 1 2 cbr 100 ------- 1 0.0 2.0 31 31
+ 1.275 0 1 cbr 100 ------- 1 0.0 2.0 55 55
- 1.275 0 1 cbr 100 ------- 1 0.0 2.0 55 55
r 1.2758 0 1 cbr 100 ------- 1 0.0 2.0 45 45
+ 1.2758 1 2 cbr 100 ------- 1 0.0 2.0 45 45
r 1.2798 1 2 cbr 100 ------- 1 0.0 2.0 29 29
+ 1.28 0 1 cbr 100 ------- 1 0.0 2.0 56 56
- 1.28 0 1 cbr 100 ------- 1 0.0 2.0 56 56
r 1.2808 0 1 cbr 100 ------- 1 0.0 2.0 46 46
+ 1.2808 1 2 cbr 100 ------- 1 0.0 2.0 46 46
d 1.2808 1 2 cbr 100 ------- 1 0.0 2.0 46 46
- 1.2828 1 2 cbr 100 ------- 1 0.0 2.0 33 33
+ 1.285 0 1 cbr 100 ------- 1 0.0 2.0 57 57
- 1.285 0 1 cbr 100 ------- 1 0.0 2.0 57 57
r 1.2858 0 1 cbr 100 ------- 1 0.0 2.0 47 47
+ 1.2858 1 2 cbr 100 ------- 1 0.0 2.0 47 47
r 1.2878 1 2 cbr 100 ------- 1 0.0 2.0 31 31
+ 1.29 0 1 cbr 100 ------- 1 0.0 2.0 58 58
- 1.29 0 1 cbr 100 ------- 1 0.0 2.0 58 58
r 1.2908 0 1 cbr 100 ------- 1 0.0 2.0 48 48
+ 1.2908 1 2 cbr 100 ------- 1 0.0 2.0 48 48
d 1.2908 1 2 cbr 100 ------- 1 0.0 2.0 48 48
- 1.2908 1 2 cbr 100 ------- 1 0.0 2.0 34 34
+ 1.295 0 1 cbr 100 ------- 1 0.0 2.0 59 59
- 1.295 0 1 cbr 100 ------- 1 0.0 2.0 59 59
r 1.2958 0 1 cbr 100 ------- 1 0.0 2.0 49 49
+ 1.2958 1 2 cbr 100 ------- 1 0.0 2.0 49 49
r 1.2958 1 2 cbr 100 ------- 1 0.0 2.0 33 33
- 1.2988 1 2 cbr 100 ------- 1 0.0 2.0 36 36
+ 1.3 0 1 cbr 100 ------- 1 0.0 2.0 60 60
- 1.3 0 1 cbr 100 ------- 1 0.0 2.0 60 60
r 1.3008 0 1 cbr 100 ------- 1 0.0 2.0 50 50
+ 1.3008 1 2 cbr 100 ------- 1 0.0 2.0 50 50
r 1.3038 1 2 cbr 100 ------- 1 0.0 2.0 34 34
+ 1.305 0 1 cbr 100 ------- 1 0.0 2.0 61 61
- 1.305 0 1 cbr 100 ------- 1 0.0 2.0 61 61
r 1.3058 0 1 cbr 100 ------- 1 0.0 2.0 51 51
+ 1.3058 1 2 cbr 100 ------- 1 0.0 2.0 51 51
d 1.3058 1 2 cbr 100 ------- 1 0.0 2.0 51 51
- 1.3068 1 2 cbr 100 ------- 1 0.0 2.0 37 37
+ 1.31 0 1 cbr 100 ------- 1 0.0 2.0 62 62
- 1.31 0 1 cbr 100 ------- 1 0.0 2.0 62 62
r 1.3108 0 1 cbr 100 ------- 1 0.0 2.0 52 52
+ 1.3108 1 2 cbr 100 ------- 1 0.0 2.0 52 52
r 1.3118 1 2 cbr 100 ------- 1 0.0 2.0 36 36
- 1.3148 1 2 cbr 100 ------- 1 0.0 2.0 39 39
+ 1.315 0 1 cbr 100 ------- 1 0.0 2.0 63 63
- 1.315 0 1 cbr 100 ------- 1 0.0 2.0 63 63
r 1.3158 0 1 cbr 100 ------- 1 0.0 2.0 53 53
+ 1.3158 1 2 cbr 100 ------- 1 0.0 2.0 53 53
r 1.3198 1 2 cbr 100 ------- 1 0.0 2.0 37 37
+ 1.32 0 1 cbr 100 ------- 1 0.0 2.0 64 64
- 1.32 0 1 cbr 100 ------- 1 0.0 2.0 64 64
r 1.3208 0 1 cbr 100 ------- 1 0.0 2.0 54 54
+ 1.3208 1 2 cbr 100 ------- 1 0.0 2.0 54 54
d 1.3208 1 2 cbr 100 ------- 1 0.0 2.0 54 54
- 1.3228 1 2 cbr 100 ------- 1 0.0 2.0 41 41
+ 1.325 0 1 cbr 100 ------- 1 0.0 2.0 65 65
- 1.325 0 1 cbr 100 ------- 1 0.0 2.0 65 65
r 1.3258 0 1 cbr 100 ------- 1 0.0 2.0 55 55
+ 1.3258 1 2 cbr 100 ------- 1 0.0 2.0 55 55
r 1.3278 1 2 cbr 100 ------- 1 0.0 2.0 39 39
+ 1.33 0 1 cbr 100 ------- 1 0.0 2.0 66 66
- 1.33 0 1 cbr 100 ------- 1 0.0 2.0 66 66
r 1.3308 0 1 cbr 100 ------- 1 0.0 2.0 56 56
+ 1.3308 1 2 cbr 100 ------- 1 0.0 2.0 56 56
d 1.3308 1 2 cbr 100 ------- 1 0.0 2.0 56 56
- 1.3308 1 2 cbr 100 ------- 1 0.0 2.0 42 42
+ 1.335 0 1 cbr 100 ------- 1 0.0 2.0 67 67
- 1.335 0 1 cbr 100 ------- 1 0.0 2.0 67 67
r 1.3358 0 1 cbr 100 ------- 1 0.0 2.0 57 57
+ 1.3358 1 2 cbr 100 ------- 1 0.0 2.0 57 57
r 1.3358 1 2 cbr 100 ------- 1 0.0 2.0 41 41
- 1.3388 1 2 cbr 100 ------- 1 0.0 2.0 44 44
+ 1.34 0 1 cbr 100 ------- 1 0.0 2.0 68 68
- 1.34 0 1 cbr 100 ------- 1 0.0 2.0 68 68
r 1.3408 0 1 cbr 100 ------- 1 0.0 2.0 58 58
+ 1.3408 1 2 cbr 100 ------- 1 0.0 2.0 58 58
r 1.3438 1 2 cbr 100 ------- 1 0.0 2.0 42 42
+ 1.345 0 1 cbr 100 ------- 1 0.0 2.0 69 69
- 1.345 0 1 cbr 100 ------- 1 0.0 2.0 69 69
r 1.3458 0 1 cbr 100 ------- 1 0.0 2.0 59 59
+ 1.3458 1 2 cbr 100 ------- 1 0.0 2.0 59 59
d 1.3458 1 2 cbr 100 ------- 1 0.0 2.0 59 59
- 1.3468 1 2 cbr 100 ------- 1 0.0 2.0 45 45
+ 1.35 0 1 cbr 100 ------- 1 0.0 2.0 70 70
- 1.35 0 1 cbr 100 ------- 1 0.0 2.0 70 70
r 1.3508 0 1 cbr 100 ------- 1 0.0 2.0 60 60
+ 1.3508 1 2 cbr 100 ------- 1 0.0 2.0 60 60
r 1.3518 1 2 cbr 100 ------- 1 0.0 2.0 44 44
- 1.3548 1 2 cbr 100 ------- 1 0.0 2.0 47 47
+ 1.355 0 1 cbr 100 ------- 1 0.0 2.0 71 71
- 1.355 0 1 cbr 100 ------- 1 0.0 2.0 71 71
r 1.3558 0 1 cbr 100 ------- 1 0.0 2.0 61 61
+ 1.3558 1 2 cbr 100 ------- 1 0.0 2.0 61 61
r 1.3598 1 2 cbr 100 ------- 1 0.0 2.0 45 45
+ 1.36 0 1 cbr 100 ------- 1 0.0 2.0 72 72
- 1.36 0 1 cbr 100 ------- 1 0.0 2.0 72 72
r 1.3608 0 1 cbr 100 ------- 1 0.0 2.0 62 62
+ 1.3608 1 2 cbr 100 ------- 1 0.0 2.0 62 62
d 1.3608 1 2 cbr 100 ------- 1 0.0 2.0 62 62
- 1.3628 1 2 cbr 100 ------- 1 0.0 2.0 49 49
+ 1.365 0 1 cbr 100 ------- 1 0.0 2.0 73 73
- 1.365 0 1 cbr 100 ------- 1 0.0 2.0 73 73
r 1.3658 0 1 cbr 100 ------- 1 0.0 2.0 63 63
+ 1.3658 1 2 cbr 100 ------- 1 0.0 2.0 63 63
r 1.3678 1 2 cbr 100 ------- 1 0.0 2.0 47 47
+ 1.37 0 1 cbr 100 ------- 1 0.0 2.0 74 74
- 1.37 0 1 cbr 100 ------- 1 0.0 2.0 74 74
r 1.3708 0 1 cbr 100 ------- 1 0.0 2.0 64 64
+ 1.3708 1 2 cbr 100 ------- 1 0.0 2.0 64 64
d 1.3708 1 2 cbr 100 ------- 1 0.0 2.0 64 64
- 1.3708 1 2 cbr 100 ------- 1 0.0 2.0 50 50
+ 1.375 0 1 cbr 100 ------- 1 0.0 2.0 75 75
- 1.375 0 1 cbr 100 ------- 1 0.0 2.0 75 75
r 1.3758 0 1 cbr 100 ------- 1 0.0 2.0 65 65
+ 1.3758 1 2 cbr 100 ------- 1 0.0 2.0 65 65
r 1.3758 1 2 cbr 100 ------- 1 0.0 2.0 49 49
- 1.3788 1 2 cbr 100 ------- 1 0.0 2.0 52 52
+ 1.38 0 1 cbr 100 ------- 1 0.0 2.0 76 76
- 1.38 0 1 cbr 100 ------- 1 0.0 2.0 76 76
r 1.3808 0 1 cbr 100 ------- 1 0.0 2.0 66 66
+ 1.3808 1 2 cbr 100 ------- 1 0.0 2.0 66 66
r 1.3838 1 2 cbr 100 ------- 1 0.0 2.0 50 50
+ 1.385 0 1 cbr 100 ------- 1 0.0 2.0 77 77
- 1.385 0 1 cbr 100 ------- 1 0.0 2.0 77 77
r 1.3858 0 1 cbr 100 ------- 1 0.0 2.0 67 67
+ 1.3858 1 2 cbr 100 ------- 1 0.0 2.0 67 67
d 1.3858 1 2 cbr 100 ------- 1 0.0 2.0 67 67
- 1.3868 1 2 cbr 100 ------- 1 0.0 2.0 53 53
+ 1.39 0 1 cbr 100 ------- 1 0.0 2.0 78 78
- 1.39 0 1 cbr 100 ------- 1 0.0 2.0 78 78
r 1.3908 0 1 cbr 100 ------- 1 0.0 2.0 68 68
+ 1.3908 1 2 cbr 100 ------- 1 0.0 2.0 68 68
r 1.3918 1 2 cbr 100 ------- 1 0.0 2.0 52 52
- 1.3948 1 2 cbr 100 ------- 1 0.0 2.0 55 55
+ 1.395 0 1 cbr 100 ------- 1 0.0 2.0 79 79
- 1.395 0 1 cbr 100 ------- 1 0.0 2.0 79 79
r 1.3958 0 1 cbr 100 ------- 1 0.0 2.0 69 69
+ 1.3958 1 2 cbr 100 ------- 1 0.0 2.0 69 69
r 1.3998 1 2 cbr 100 ------- 1 0.0 2.0 53 53
+ 1.4 0 1 cbr 100 ------- 1 0.0 2.0 80 80
- 1.4 0 1 cbr 100 ------- 1 0.0 2.0 80 80
r 1.4008 0 1 cbr 100 ------- 1 0.0 2.0 70 70
+ 1.4008 1 2 cbr 100 ------- 1 0.0 2.0 70 70
d 1.4008 1 2 cbr 100 ------- 1 0.0 2.0 70 70
- 1.4028 1 2 cbr 100 ------- 1 0.0 2.0 57 57
+ 1.405 0 1 cbr 100 ------- 1 0.0 2.0 81 81
- 1.405 0 1 cbr 100 ------- 1 0.0 2.0 81 81
r 1.4058 0 1 cbr 100 ------- 1 0.0 2.0 71 71
+ 1.4058 1 2 cbr 100 ------- 1 0.0 2.0 71 71
r 1.4078 1 2 cbr 100 ------- 1 0.0 2.0 55 55
+ 1.41 0 1 cbr 100 ------- 1 0.0 2.0 82 82
- 1.41 0 1 cbr 100 ------- 1 0.0 2.0 82 82
r 1.4108 0 1 cbr 100 ------- 1 0.0 2.0 72 72
+ 1.4108 1 2 cbr 100 ------- 1 0.0 2.0 72 72
d 1.4108 1 2 cbr 100 ------- 1 0.0 2.0 72 72
- 1.4108 1 2 cbr 100 ------- 1 0.0 2.0 58 58
+ 1.415 0 1 cbr 100 ------- 1 0.0 2.0 83 83
- 1.415 0 1 cbr 100 ------- 1 0.0 2.0 83 83
r 1.4158 0 1 cbr 100 ------- 1 0.0 2.0 73 73
+ 1.4158 1 2 cbr 100 ------- 1 0.0 2.0 73 73
r 1.4158 1 2 cbr 100 ------- 1 0.0 2.0 57 57
- 1.4188 1 2 cbr 100 ------- 1 0.0 2.0 60 60
+ 1.42 0 1 cbr 100 ------- 1 0.0 2.0 84 84
- 1.42 0 1 cbr 100 ------- 1 0.0 2.0 84 84
r 1.4208 0 1 cbr 100 ------- 1 0.0 2.0 74 74
+ 1.4208 1 2 cbr 100 ------- 1 0.0 2.0 74 74
r 1.4238 1 2 cbr 100 ------- 1 0.0 2.0 58 58
+ 1.425 0 1 cbr 100 ------- 1 0.0 2.0 85 85
- 1.425 0 1 cbr 100 ------- 1 0.0 2.0 85 85
r 1.4258 0 1 cbr 100 ------- 1 0.0 2.0 75 75
+ 1.4258 1 2 cbr 100 ------- 1 0.0 2.0 75 75
d 1.4258 1 2 cbr 100 ------- 1 0.0 2.0 75 75
- 1.4268 1 2 cbr 100 ------- 1 0.0 2.0 61 61
+ 1.43 0 1 cbr 100 ------- 1 0.0 2.0 86 86
- 1.43 0 1 cbr 100 ------- 1 0.0 2.0 86 86
r 1.4308 0 1 cbr 100 ------- 1 0.0 2.0 76 76
+ 1.4308 1 2 cbr 100 ------- 1 0.0 2.0 76 76
r 1.4318 1 2 cbr 100 ------- 1 0.0 2.0 60 60
- 1.4348 1 2 cbr 100 ------- 1 0.0 2.0 63 63
+ 1.435 0 1 cbr 100 ------- 1 0.0 2.0 87 87
- 1.435 0 1 cbr 100 ------- 1 0.0 2.0 87 87
r 1.4358 0 1 cbr 100 ------- 1 0.0 2.0 77 77
+ 1.4358 1 2 cbr 100 ------- 1 0.0 2.0 77 77
r 1.4398 1 2 cbr 100 ------- 1 0.0 2.0 61 61
+ 1.44 0 1 cbr 100 ------- 1 0.0 2.0 88 88
- 1.44 0 1 cbr 100 ------- 1 0.0 2.0 88 88
r 1.4408 0 1 cbr 100 ------- 1 0.0 2.0 78 78
+ 1.4408 1 2 cbr 100 ------- 1 0.0 2.0 78 78
d 1.4408 1 2 cbr 100 ------- 1 0.0 2.0 78 78
- 1.4428 1 2 cbr 100 ------- 1 0.0 2.0 65 65
+ 1.445 0 1 cbr 100 ------- 1 0.0 2.0 89 89
- 1.445 0 1 cbr 100 ------- 1 0.0 2.0 89 89
r 1.4458 0 1 cbr 100 ------- 1 0.0 2.0 79 79
+ 1.4458 1 2 cbr 100 ------- 1 0.0 2.0 79 79
r 1.4478 1 2 cbr 100 ------- 1 0.0 2.0 63 63
+ 1.45 0 1 cbr 100 ------- 1 0.0 2.0 90 90
- 1.45 0 1 cbr 100 ------- 1 0.0 2.0 90 90
r 1.4508 0 1 cbr 100 ------- 1 0.0 2.0 80 80
+ 1.4508 1 2 cbr 100 ------- 1 0.0 2.0 80 80
d 1.4508 1 2 cbr 100 ------- 1 0.0 2.0 80 80
- 1.4508 1 2 cbr 100 ------- 1 0.0 2.0 66 66
+ 1.455 0 1 cbr 100 ------- 1 0.0 2.0 91 91
- 1.455 0 1 cbr 100 ------- 1 0.0 2.0 91 91
r 1.4558 0 1 cbr 100 ------- 1 0.0 2.0 81 81
+ 1.4558 1 2 cbr 100 ------- 1 0.0 2.0 81 81
r 1.4558 1 2 cbr 100 ------- 1 0.0 2.0 65 65
- 1.4588 1 2 cbr 100 ------- 1 0.0 2.0 68 68
+ 1.46 0 1 cbr 100 ------- 1 0.0 2.0 92 92
- 1.46 0 1 cbr 100 ------- 1 0.0 2.0 92 92
r 1.4608 0 1 cbr 100 ------- 1 0.0 2.0 82 82
+ 1.4608 1 2 cbr 100 ------- 1 0.0 2.0 82 82
r 1.4638 1 2 cbr 100 ------- 1 0.0 2.0 66 66
+ 1.465 0 1 cbr 100 ------- 1 0.0 2.0 93 93
- 1.465 0 1 cbr 100 ------- 1 0.0 2.0 93 93
r 1.4658 0 1 cbr 100 ------- 1 0.0 2.0 83 83
+ 1.4658 1 2 cbr 100 ------- 1 0.0 2.0 83 83
d 1.4658 1 2 cbr 100 ------- 1 0.0 2.0 83 83
- 1.4668 1 2 cbr 100 ------- 1 0.0 2.0 69 69
+ 1.47 0 1 cbr 100 ------- 1 0.0 2.0 94 94
- 1.47 0 1 cbr 100 ------- 1 0.0 2.0 94 94
r 1.4708 0 1 cbr 100 ------- 1 0.0 2.0 84 84
+ 1.4708 1 2 cbr 100 ------- 1 0.0 2.0 84 84
r 1.4718 1 2 cbr 100 ------- 1 0.0 2.0 68 68
- 1.4748 1 2 cbr 100 ------- 1 0.0 2.0 71 71
+ 1.475 0 1 cbr 100 ------- 1 0.0 2.0 95 95
- 1.475 0 1 cbr 100 ------- 1 0.0 2.0 95 95
r 1.4758 0 1 cbr 100 ------- 1 0.0 2.0 85 85
+ 1.4758 1 2 cbr 100 ------- 1 0.0 2.0 85 85
r 1.4798 1 2 cbr 100 ------- 1 0.0 2.0 69 69
+ 1.48 0 1 cbr 100 ------- 1 0.0 2.0 96 96
- 1.48 0 1 cbr 100 ------- 1 0.0 2.0 96 96
r 1.4808 0 1 cbr 100 ------- 1 0.0 2.0 86 86
+ 1.4808 1 2 cbr 100 ------- 1 0.0 2.0 86 86
d 1.4808 1 2 cbr 100 ------- 1 0.0 2.0 86 86
- 1.4828 1 2 cbr 100 ------- 1 0.0 2.0 73 73
+ 1.485 0 1 cbr 100 ------- 1 0.0 2.0 97 97
- 1.485 0 1 cbr 100 ------- 1 0.0 2.0 97 97
r 1.4858 0 1 cbr 100 ------- 1 0.0 2.0 87 87
+ 1.4858 1 2 cbr 100 ------- 1 0.0 2.0 87 87
r 1.4878 1 2 cbr 100 ------- 1 0.0 2.0 71 71
+ 1.49 0 1 cbr 100 ------- 1 0.0 2.0 98 98
- 1.49 0 1 cbr 100 ------- 1 0.0 2.0 98 98
r 1.4908 0 1 cbr 100 ------- 1 0.0 2.0 88 88
+ 1.4908 1 2 cbr 100 ------- 1 0.0 2.0 88 88
d 1.4908 1 2 cbr 100 ------- 1 0.0 2.0 88 88
- 1.4908 1 2 cbr 100 ------- 1 0.0 2.0 74 74
+ 1.495 0 1 cbr 100 ------- 1 0.0 2.0 99 99
- 1.495 0 1 cbr 100 ------- 1 0.0 2.0 99 99
r 1.4958 0 1 cbr 100 ------- 1 0.0 2.0 89 89
+ 1.4958 1 2 cbr 100 ------- 1 0.0 2.0 89 89
r 1.4958 1 2 cbr 100 ------- 1 0.0 2.0 73 73
- 1.4988 1 2 cbr 100 ------- 1 0.0 2.0 76 76
+ 1.5 0 1 cbr 100 ------- 1 0.0 2.0 100 100
- 1.5 0 1 cbr 100 ------- 1 0.0 2.0 100 100
r 1.5008 0 1 cbr 100 ------- 1 0.0 2.0 90 90
+ 1.5008 1 2 cbr 100 ------- 1 0.0 2.0 90 90
r 1.5038 1 2 cbr 100 ------- 1 0.0 2.0 74 74
+ 1.505 0 1 cbr 100 ------- 1 0.0 2.0 101 101
- 1.505 0 1 cbr 100 ------- 1 0.0 2.0 101 101
r 1.5058 0 1 cbr 100 ------- 1 0.0 2.0 91 91
+ 1.5058 1 2 cbr 100 ------- 1 0.0 2.0 91 91
d 1.5058 1 2 cbr 100 ------- 1 0.0 2.0 91 91
- 1.5068 1 2 cbr 100 ------- 1 0.0 2.0 77 77
+ 1.51 0 1 cbr 100 ------- 1 0.0 2.0 102 102
- 1.51 0 1 cbr 100 ------- 1 0.0 2.0 102 102
r 1.5108 0 1 cbr 100 ------- 1 0.0 2.0 92 92
+ 1.5108 1 2 cbr 100 ------- 1 0.0 2.0 92 92
r 1.5118 1 2 cbr 100 ------- 1 0.0 2.0 76 76
- 1.5148 1 2 cbr 100 ------- 1 0.0 2.0 79 79
+ 1.515 0 1 cbr 100 ------- 1 0.0 2.0 103 103
- 1.515 0 1 cbr 100 ------- 1 0.0 2.0 103 103
r 1.5158 0 1 cbr 100 ------- 1 0.0 2.0 93 93
+ 1.5158 1 2 cbr 100 ------- 1 0.0 2.0 93 93
r 1.5198 1 2 cbr 100 ------- 1 0.0 2.0 77 77
+ 1.52 0 1 cbr 100 ------- 1 0.0 2.0 104 104
- 1.52 0 1 cbr 100 ------- 1 0.0 2.0 104 104
r 1.5208 0 1 cbr 100 ------- 1 0.0 2.0 94 94
+ 1.5208 1 2 cbr 100 ------- 1 0.0 2.0 94 94
d 1.5208 1 2 cbr 100 ------- 1 0.0 2.0 94 94
- 1.5228 1 2 cbr 100 ------- 1 0.0 2.0 81 81
+ 1.525 0 1 cbr 100 ------- 1 0.0 2.0 105 105
- 1.525 0 1 cbr 100 ------- 1 0.0 2.0 105 105
r 1.5258 0 1 cbr 100 ------- 1 0.0 2.0 95 95
+ 1.5258 1 2 cbr 100 ------- 1 0.0 2.0 95 95
r 1.5278 1 2 cbr 100 ------- 1 0.0 2.0 79 79
+ 1.53 0 1 cbr 100 ------- 1 0.0 2.0 106 106
- 1.53 0 1 cbr 100 ------- 1 0.0 2.0 106 106
r 1.5308 0 1 cbr 100 ------- 1 0.0 2.0 96 96
+ 1.5308 1 2 cbr 100 ------- 1 0.0 2.0 96 96
d 1.5308 1 2 cbr 100 ------- 1 0.0 2.0 96 96
- 1.5308 1 2 cbr 100 ------- 1 0.0 2.0 82 82
+ 1.535 0 1 cbr 100 ------- 1 0.0 2.0 107 107
- 1.535 0 1 cbr 100 ------- 1 0.0 2.0 107 107
r 1.5358 0 1 cbr 100 ------- 1 0.0 2.0 97 97
+ 1.5358 1 2 cbr 100 ------- 1 0.0 2.0 97 97
r 1.5358 1 2 cbr 100 ------- 1 0.0 2.0 81 81
- 1.5388 1 2 cbr 100 ------- 1 0.0 2.0 84 84
+ 1.54 0 1 cbr 100 ------- 1 0.0 2.0 108 108
- 1.54 0 1 cbr 100 ------- 1 0.0 2.0 108 108
r 1.5408 0 1 cbr 100 ------- 1 0.0 2.0 98 98
+ 1.5408 1 2 cbr 100 ------- 1 0.0 2.0 98 98
r 1.5438 1 2 cbr 100 ------- 1 0.0 2.0 82 82
+ 1.545 0 1 cbr 100 ------- 1 0.0 2.0 109 109
- 1.545 0 1 cbr 100 ------- 1 0.0 2.0 109 109
r 1.5458 0 1 cbr 100 ------- 1 0.0 2.0 99 99
+ 1.5458 1 2 cbr 100 ------- 1 0.0 2.0 99 99
d 1.5458 1 2 cbr 100 ------- 1 0.0 2.0 99 99
- 1.5468 1 2 cbr 100 ------- 1 0.0 2.0 85 85
+ 1.55 0 1 cbr 100 ------- 1 0.0 2.0 110 110
- 1.55 0 1 cbr 100 ------- 1 0.0 2.0 110 110
r 1.5508 0 1 cbr 100 ------- 1 0.0 2.0 100 100
+ 1.5508 1 2 cbr 100 ------- 1 0.0 2.0 100 100
r 1.5518 1 2 cbr 100 ------- 1 0.0 2.0 84 84
- 1.5548 1 2 cbr 100 ------- 1 0.0 2.0 87 87
+ 1.555 0 1 cbr 100 ------- 1 0.0 2.0 111 111
- 1.555 0 1 cbr 100 ------- 1 0.0 2.0 111 111
r 1.5558 0 1 cbr 100 ------- 1 0.0 2.0 101 101
+ 1.5558 1 2 cbr 100 ------- 1 0.0 2.0 101 101
r 1.5598 1 2 cbr 100 ------- 1 0.0 2.0 85 85
+ 1.56 0 1 cbr 100 ------- 1 0.0 2.0 112 112
- 1.56 0 1 cbr 100 ------- 1 0.0 2.0 112 112
r 1.5608 0 1 cbr 100 ------- 1 0.0 2.0 102 102
+ 1.5608 1 2 cbr 100 ------- 1 0.0 2.0 102 102
d 1.5608 1 2 cbr 100 ------- 1 0.0 2.0 102 102
- 1.5628 1 2 cbr 100 ------- 1 0.0 2.0 89 89
+ 1.565 0 1 cbr 100 ------- 1 0.0 2.0 113 113
- 1.565 0 1 cbr 100 ------- 1 0.0 2.0 113 113
r 1.5658 0 1 cbr 100 ------- 1 0.0 2.0 103 103
+ 1.5658 1 2 cbr 100 ------- 1 0.0 2.0 103 103
r 1.5678 1 2 cbr 100 ------- 1 0.0 2.0 87 87
+ 1.57 0 1 cbr 100 ------- 1 0.0 2.0 114 114
- 1.57 0 1 cbr 100 ------- 1 0.0 2.0 114 114
r 1.5708 0 1 cbr 100 ------- 1 0.0 2.0 104 104
+ 1.5708 1 2 cbr 100 ------- 1 0.0 2.0 104 104
d 1.5708 1 2 cbr 100 ------- 1 0.0 2.0 104 104
- 1.5708 1 2 cbr 100 ------- 1 0.0 2.0 90 90
+ 1.575 0 1 cbr 100 ------- 1 0.0 2.0 115 115
- 1.575 0 1 cbr 100 ------- 1 0.0 2.0 115 115
r 1.5758 0 1 cbr 100 ------- 1 0.0 2.0 105 105
+ 1.5758 1 2 cbr 100 ------- 1 0.0 2.0 105 105
r 1.5758 1 2 cbr 100 ------- 1 0.0 2.0 89 89
- 1.5788 1 2 cbr 100 ------- 1 0.0 2.0 92 92
+ 1.58 0 1 cbr 100 ------- 1 0.0 2.0 116 116
- 1.58 0 1 cbr 100 ------- 1 0.0 2.0 116 116
r 1.5808 0 1 cbr 100 ------- 1 0.0 2.0 106 106
+ 1.5808 1 2 cbr 100 ------- 1 0.0 2.0 106 106
r 1.5838 1 2 cbr 100 ------- 1 0.0 2.0 90 90
+ 1.585 0 1 cbr 100 ------- 1 0.0 2.0 117 117
- 1.585 0 1 cbr 100 ------- 1 0.0 2.0 117 117
r 1.5858 0 1 cbr 100 ------- 1 0.0 2.0 107 107
+ 1.5858 1 2 cbr 100 ------- 1 0.0 2.0 107 107
d 1.5858 1 2 cbr 100 ------- 1 0.0 2.0 107 107
- 1.5868 1 2 cbr 100 ------- 1 0.0 2.0 93 93
+ 1.59 0 1 cbr 100 ------- 1 0.0 2.0 118 118
- 1.59 0 1 cbr 100 ------- 1 0.0 2.0 118 118
r 1.5908 0 1 cbr 100 ------- 1 0.0 2.0 108 108
+ 1.5908 1 2 cbr 100 ------- 1 0.0 2.0 108 108
r 1.5918 1 2 cbr 100 ------- 1 0.0 2.0 92 92
- 1.5948 1 2 cbr 100 ------- 1 0.0 2.0 95 95
+ 1.595 0 1 cbr 100 ------- 1 0.0 2.0 119 119
- 1.595 0 1 cbr 100 ------- 1 0.0 2.0 119 119
r 1.5958 0 1 cbr 100 ------- 1 0.0 2.0 109 109
+ 1.5958 1 2 cbr 100 ------- 1 0.0 2.0 109 109
r 1.5998 1 2 cbr 100 ------- 1 0.0 2.0 93 93
+ 1.6 0 1 cbr 100 ------- 1 0.0 2.0 120 120
- 1.6 0 1 cbr 100 ------- 1 0.0 2.0 120 120
r 1.6008 0 1 cbr 100 ------- 1 0.0 2.0 110 110
+ 1.6008 1 2 cbr 100 ------- 1 0.0 2.0 110 110
d 1.6008 1 2 cbr 100 ------- 1 0.0 2.0 110 110
- 1.6028 1 2 cbr 100 ------- 1 0.0 2.0 97 97
+ 1.605 0 1 cbr 100 ------- 1 0.0 2.0 121 121
- 1.605 0 1 cbr 100 ------- 1 0.0 2.0 121 121
r 1.6058 0 1 cbr 100 ------- 1 0.0 2.0 111 111
+ 1.6058 1 2 cbr 100 ------- 1 0.0 2.0 111 111
r 1.6078 1 2 cbr 100 ------- 1 0.0 2.0 95 95
+ 1.61 0 1 cbr 100 ------- 1 0.0 2.0 122 122
- 1.61 0 1 cbr 100 ------- 1 0.0 2.0 122 122
r 1.6108 0 1 cbr 100 ------- 1 0.0 2.0 112 112
+ 1.6108 1 2 cbr 100 ------- 1 0.0 2.0 112 112
d 1.6108 1 2 cbr 100 ------- 1 0.0 2.0 112 112
- 1.6108 1 2 cbr 100 ------- 1 0.0 2.0 98 98
+ 1.615 0 1 cbr 100 ------- 1 0.0 2.0 123 123
- 1.615 0 1 cbr 100 ------- 1 0.0 2.0 123 123
r 1.6158 0 1 cbr 100 ------- 1 0.0 2.0 113 113
+ 1.6158 1 2 cbr 100 ------- 1 0.0 2.0 113 113
r 1.6158 1 2 cbr 100 ------- 1 0.0 2.0 97 97
- 1.6188 1 2 cbr 100 ------- 1 0.0 2.0 100 100
+ 1.62 0 1 cbr 100 ------- 1 0.0 2.0 124 124
- 1.62 0 1 cbr 100 ------- 1 0.0 2.0 124 124
r 1.6208 0 1 cbr 100 ------- 1 0.0 2.0 114 114
+ 1.6208 1 2 cbr 100 ------- 1 0.0 2.0 114 114
r 1.6238 1 2 cbr 100 ------- 1 0.0 2.0 98 98
+ 1.625 0 1 cbr 100 ------- 1 0.0 2.0 125 125
- 1.625 0 1 cbr 100 ------- 1 0.0 2.0 125 125
r 1.6258 0 1 cbr 100 ------- 1 0.0 2.0 115 115
+ 1.6258 1 2 cbr 100 ------- 1 0.0 2.0 115 115
d 1.6258 1 2 cbr 100 ------- 1 0.0 2.0 115 115
- 1.6268 1 2 cbr 100 ------- 1 0.0 2.0 101 101
+ 1.63 0 1 cbr 100 ------- 1 0.0 2.0 126 126
- 1.63 0 1 cbr 100 ------- 1 0.0 2.0 126 126
r 1.6308 0 1 cbr 100 ------- 1 0.0 2.0 116 116
+ 1.6308 1 2 cbr 100 ------- 1 0.0 2.0 116 116
r 1.6318 1 2 cbr 100 ------- 1 0.0 2.0 100 100
- 1.6348 1 2 cbr 100 ------- 1 0.0 2.0 103 103
+ 1.635 0 1 cbr 100 ------- 1 0.0 2.0 127 127
- 1.635 0 1 cbr 100 ------- 1 0.0 2.0 127 127
r 1.6358 0 1 cbr 100 ------- 1 0.0 2.0 117 117
+ 1.6358 1 2 cbr 100 ------- 1 0.0 2.0 117 117