+ 1 0 1 cbr 100 ------- 1 0.0 2.0 0 0
- 1 0 1 cbr 100 ------- 1 0.0 2.0 0 0
+ 1.006667 0 1 cbr 100 ------- 1 0.0 2.0 1 1
- 1.006667 0 1 cbr 100 ------- 1 0.0 2.0 1 1
+ 1.013333 0 1 cbr 100 ------- 1 0.0 2.0 2 2
- 1.013333 0 1 cbr 100 ------- 1 0.0 2.0 2 2
+ 1.02 0 1 cbr 100 ------- 1 0.0 2.0 3 3
- 1.02 0 1 cbr 100 ------- 1 0.0 2.0 3 3
+ 1.026667 0 1 cbr 100 ------- 1 0.0 2.0 4 4
- 1.026667 0 1 cbr 100 ------- 1 0.0 2.0 4 4
+ 1.033333 0 1 cbr 100 ------- 1 0.0 2.0 5 5
- 1.033333 0 1 cbr 100 ------- 1 0.0 2.0 5 5
+ 1.04 0 1 cbr 100 ------- 1 0.0 2.0 6 6
- 1.04 0 1 cbr 100 ------- 1 0.0 2.0 6 6
+ 1.046667 0 1 cbr 100 ------- 1 0.0 2.0 7 7
- 1.046667 0 1 cbr 100 ------- 1 0.0 2.0 7 7
r 1.0508 0 1 cbr 100 ------- 1 0.0 2.0 0 0
+ 1.0508 1 2 cbr 100 ------- 1 0.0 2.0 0 0
- 1.0508 1 2 cbr 100 ------- 1 0.0 2.0 0 0
+ 1.053333 0 1 cbr 100 ------- 1 0.0 2.0 8 8
- 1.053333 0 1 cbr 100 ------- 1 0.0 2.0 8 8
r 1.057467 0 1 cbr 100 ------- 1 0.0 2.0 1 1
+ 1.057467 1 2 cbr 100 ------- 1 0.0 2.0 1 1
- 1.0588 1 2 cbr 100 ------- 1 0.0 2.0 1 1
+ 1.06 0 1 cbr 100 ------- 1 0.0 2.0 9 9
- 1.06 0 1 cbr 100 ------- 1 0.0 2.0 9 9
r 1.0638 1 2 cbr 100 ------- 1 0.0 2.0 0 0
r 1.064133 0 1 cbr 100 ------- 1 0.0 2.0 2 2
+ 1.064133 1 2 cbr 100 ------- 1 0.0 2.0 2 2
+ 1.066667 0 1 cbr 100 ------- 1 0.0 2.0 10 10
- 1.066667 0 1 cbr 100 ------- 1 0.0 2.0 10 10
- 1.0668 1 2 cbr 100 ------- 1 0.0 2.0 2 2
r 1.0708 0 1 cbr 100 ------- 1 0.0 2.0 3 3
+ 1.0708 1 2 cbr 100 ------- 1 0.0 2.0 3 3
r 1.0718 1 2 cbr 100 ------- 1 0.0 2.0 1 1
+ 1.073333 0 1 cbr 100 ------- 1 0.0 2.0 11 11
- 1.073333 0 1 cbr 100 ------- 1 0.0 2.0 11 11
- 1.0748 1 2 cbr 100 ------- 1 0.0 2.0 3 3
r 1.077467 0 1 cbr 100 ------- 1 0.0 2.0 4 4
+ 1.077467 1 2 cbr 100 ------- 1 0.0 2.0 4 4
r 1.0798 1 2 cbr 100 ------- 1 0.0 2.0 2 2
+ 1.08 0 1 cbr 100 ------- 1 0.0 2.0 12 12
- 1.08 0 1 cbr 100 ------- 1 0.0 2.0 12 12
- 1.0828 1 2 cbr 100 ------- 1 0.0 2.0 4 4
r 1.084133 0 1 cbr 100 ------- 1 0.0 2.0 5 5
+ 1.084133 1 2 cbr 100 ------- 1 0.0 2.0 5 5
+ 1.086667 0 1 cbr 100 ------- 1 0.0 2.0 13 13
- 1.086667 0 1 cbr 100 ------- 1 0.0 2.0 13 13
r 1.0878 1 2 cbr 100 ------- 1 0.0 2.0 3 3
r 1.0908 0 1 cbr 100 ------- 1 0.0 2.0 6 6
+ 1.0908 1 2 cbr 100 ------- 1 0.0 2.0 6 6
- 1.0908 1 2 cbr 100 ------- 1 0.0 2.0 5 5
+ 1.093333 0 1 cbr 100 ------- 1 0.0 2.0 14 14
- 1.093333 0 1 cbr 100 ------- 1 0.0 2.0 14 14
r 1.0958 1 2 cbr 100 ------- 1 0.0 2.0 4 4
r 1.097467 0 1 cbr 100 ------- 1 0.0 2.0 7 7
+ 1.097467 1 2 cbr 100 ------- 1 0.0 2.0 7 7
- 1.0988 1 2 cbr 100 ------- 1 0.0 2.0 6 6
+ 1.1 0 1 cbr 100 ------- 1 0.0 2.0 15 15
- 1.1 0 1 cbr 100 ------- 1 0.0 2.0 15 15
r 1.1038 1 2 cbr 100 ------- 1 0.0 2.0 5 5
r 1.104133 0 1 cbr 100 ------- 1 0.0 2.0 8 8
+ 1.104133 1 2 cbr 100 ------- 1 0.0 2.0 8 8
+ 1.106667 0 1 cbr 100 ------- 1 0.0 2.0 16 16
- 1.106667 0 1 cbr 100 ------- 1 0.0 2.0 16 16
- 1.1068 1 2 cbr 100 ------- 1 0.0 2.0 7 7
r 1.1108 0 1 cbr 100 ------- 1 0.0 2.0 9 9
+ 1.1108 1 2 cbr 100 ------- 1 0.0 2.0 9 9
r 1.1118 1 2 cbr 100 ------- 1 0.0 2.0 6 6
+ 1.113333 0 1 cbr 100 ------- 1 0.0 2.0 17 17
- 1.113333 0 1 cbr 100 ------- 1 0.0 2.0 17 17
- 1.1148 1 2 cbr 100 ------- 1 0.0 2.0 8 8
r 1.117467 0 1 cbr 100 ------- 1 0.0 2.0 10 10
+ 1.117467 1 2 cbr 100 ------- 1 0.0 2.0 10 10
r 1.1198 1 2 cbr 100 ------- 1 0.0 2.0 7 7
+ 1.12 0 1 cbr 100 ------- 1 0.0 2.0 18 18
- 1.12 0 1 cbr 100 ------- 1 0.0 2.0 18 18
- 1.1228 1 2 cbr 100 ------- 1 0.0 2.0 9 9
r 1.124133 0 1 cbr 100 ------- 1 0.0 2.0 11 11
+ 1.124133 1 2 cbr 100 ------- 1 0.0 2.0 11 11
+ 1.126667 0 1 cbr 100 ------- 1 0.0 2.0 19 19
- 1.126667 0 1 cbr 100 ------- 1 0.0 2.0 19 19
r 1.1278 1 2 cbr 100 ------- 1 0.0 2.0 8 8
r 1.1308 0 1 cbr 100 ------- 1 0.0 2.0 12 12
+ 1.1308 1 2 cbr 100 ------- 1 0.0 2.0 12 12
- 1.1308 1 2 cbr 100 ------- 1 0.0 2.0 10 10
+ 1.133333 0 1 cbr 100 ------- 1 0.0 2.0 20 20
- 1.133333 0 1 cbr 100 ------- 1 0.0 2.0 20 20
r 1.1358 1 2 cbr 100 ------- 1 0.0 2.0 9 9
r 1.137467 0 1 cbr 100 ------- 1 0.0 2.0 13 13
+ 1.137467 1 2 cbr 100 ------- 1 0.0 2.0 13 13
- 1.1388 1 2 cbr 100 ------- 1 0.0 2.0 11 11
+ 1.14 0 1 cbr 100 ------- 1 0.0 2.0 21 21
- 1.14 0 1 cbr 100 ------- 1 0.0 2.0 21 21
r 1.1438 1 2 cbr 100 ------- 1 0.0 2.0 10 10
r 1.144133 0 1 cbr 100 ------- 1 0.0 2.0 14 14
+ 1.144133 1 2 cbr 100 ------- 1 0.0 2.0 14 14
+ 1.146667 0 1 cbr 100 ------- 1 0.0 2.0 22 22
- 1.146667 0 1 cbr 100 ------- 1 0.0 2.0 22 22
- 1.1468 1 2 cbr 100 ------- 1 0.0 2.0 12 12
r 1.1508 0 1 cbr 100 ------- 1 0.0 2.0 15 15
+ 1.1508 1 2 cbr 100 ------- 1 0.0 2.0 15 15
r 1.1518 1 2 cbr 100 ------- 1 0.0 2.0 11 11
+ 1.153333 0 1 cbr 100 ------- 1 0.0 2.0 23 23
- 1.153333 0 1 cbr 100 ------- 1 0.0 2.0 23 23
- 1.1548 1 2 cbr 100 ------- 1 0.0 2.0 13 13
r 1.157467 0 1 cbr 100 ------- 1 0.0 2.0 16 16
+ 1.157467 1 2 cbr 100 ------- 1 0.0 2.0 16 16
r 1.1598 1 2 cbr 100 ------- 1 0.0 2.0 12 12
+ 1.16 0 1 cbr 100 ------- 1 0.0 2.0 24 24
- 1.16 0 1 cbr 100 ------- 1 0.0 2.0 24 24
- 1.1628 1 2 cbr 100 ------- 1 0.0 2.0 14 14
r 1.164133 0 1 cbr 100 ------- 1 0.0 2.0 17 17
+ 1.164133 1 2 cbr 100 ------- 1 0.0 2.0 17 17
+ 1.166667 0 1 cbr 100 ------- 1 0.0 2.0 25 25
- 1.166667 0 1 cbr 100 ------- 1 0.0 2.0 25 25
r 1.1678 1 2 cbr 100 ------- 1 0.0 2.0 13 13
r 1.1708 0 1 cbr 100 ------- 1 0.0 2.0 18 18
+ 1.1708 1 2 cbr 100 ------- 1 0.0 2.0 18 18
- 1.1708 1 2 cbr 100 ------- 1 0.0 2.0 15 15
+ 1.173333 0 1 cbr 100 ------- 1 0.0 2.0 26 26
- 1.173333 0 1 cbr 100 ------- 1 0.0 2.0 26 26
r 1.1758 1 2 cbr 100 ------- 1 0.0 2.0 14 14
r 1.177467 0 1 cbr 100 ------- 1 0.0 2.0 19 19
+ 1.177467 1 2 cbr 100 ------- 1 0.0 2.0 19 19
- 1.1788 1 2 cbr 100 ------- 1 0.0 2.0 16 16
+ 1.18 0 1 cbr 100 ------- 1 0.0 2.0 27 27
- 1.18 0 1 cbr 100 ------- 1 0.0 2.0 27 27
r 1.1838 1 2 cbr 100 ------- 1 0.0 2.0 15 15
r 1.184133 0 1 cbr 100 ------- 1 0.0 2.0 20 20
+ 1.184133 1 2 cbr 100 ------- 1 0.0 2.0 20 20
+ 1.186667 0 1 cbr 100 ------- 1 0.0 2.0 28 28
- 1.186667 0 1 cbr 100 ------- 1 0.0 2.0 28 28
- 1.1868 1 2 cbr 100 ------- 1 0.0 2.0 17 17
r 1.1908 0 1 cbr 100 ------- 1 0.0 2.0 21 21
+ 1.1908 1 2 cbr 100 ------- 1 0.0 2.0 21 21
r 1.1918 1 2 cbr 100 ------- 1 0.0 2.0 16 16
+ 1.193333 0 1 cbr 100 ------- 1 0.0 2.0 29 29
- 1.193333 0 1 cbr 100 ------- 1 0.0 2.0 29 29
- 1.1948 1 2 cbr 100 ------- 1 0.0 2.0 18 18
r 1.197467 0 1 cbr 100 ------- 1 0.0 2.0 22 22
+ 1.197467 1 2 cbr 100 ------- 1 0.0 2.0 22 22
r 1.1998 1 2 cbr 100 ------- 1 0.0 2.0 17 17
+ 1.2 0 1 cbr 100 ------- 1 0.0 2.0 30 30
- 1.2 0 1 cbr 100 ------- 1 0.0 2.0 30 30
- 1.2028 1 2 cbr 100 ------- 1 0.0 2.0 19 19
r 1.204133 0 1 cbr 100 ------- 1 0.0 2.0 23 23
+ 1.204133 1 2 cbr 100 ------- 1 0.0 2.0 23 23
+ 1.206667 0 1 cbr 100 ------- 1 0.0 2.0 31 31
- 1.206667 0 1 cbr 100 ------- 1 0.0 2.0 31 31
r 1.2078 1 2 cbr 100 ------- 1 0.0 2.0 18 18
r 1.2108 0 1 cbr 100 ------- 1 0.0 2.0 24 24
+ 1.2108 1 2 cbr 100 ------- 1 0.0 2.0 24 24
- 1.2108 1 2 cbr 100 ------- 1 0.0 2.0 20 20
+ 1.213333 0 1 cbr 100 ------- 1 0.0 2.0 32 32
- 1.213333 0 1 cbr 100 ------- 1 0.0 2.0 32 32
r 1.2158 1 2 cbr 100 ------- 1 0.0 2.0 19 19
r 1.217467 0 1 cbr 100 ------- 1 0.0 2.0 25 25
+ 1.217467 1 2 cbr 100 ------- 1 0.0 2.0 25 25
- 1.2188 1 2 cbr 100 ------- 1 0.0 2.0 21 21
+ 1.22 0 1 cbr 100 ------- 1 0.0 2.0 33 33
- 1.22 0 1 cbr 100 ------- 1 0.0 2.0 33 33
r 1.2238 1 2 cbr 100 ------- 1 0.0 2.0 20 20
r 1.224133 0 1 cbr 100 ------- 1 0.0 2.0 26 26
+ 1.224133 1 2 cbr 100 ------- 1 0.0 2.0 26 26
+ 1.226667 0 1 cbr 100 ------- 1 0.0 2.0 34 34
- 1.226667 0 1 cbr 100 ------- 1 0.0 2.0 34 34
- 1.2268 1 2 cbr 100 ------- 1 0.0 2.0 22 22
r 1.2308 0 1 cbr 100 ------- 1 0.0 2.0 27 27
+ 1.2308 1 2 cbr 100 ------- 1 0.0 2.0 27 27
r 1.2318 1 2 cbr 100 ------- 1 0.0 2.0 21 21
+ 1.233333 0 1 cbr 100 ------- 1 0.0 2.0 35 35
- 1.233333 0 1 cbr 100 ------- 1 0.0 2.0 35 35
- 1.2348 1 2 cbr 100 ------- 1 0.0 2.0 23 23
r 1.237467 0 1 cbr 100 ------- 1 0.0 2.0 28 28
+ 1.237467 1 2 cbr 100 ------- 1 0.0 2.0 28 28
r 1.2398 1 2 cbr 100 ------- 1 0.0 2.0 22 22
+ 1.24 0 1 cbr 100 ------- 1 0.0 2.0 36 36
- 1.24 0 1 cbr 100 ------- 1 0.0 2.0 36 36
- 1.2428 1 2 cbr 100 ------- 1 0.0 2.0 24 24
r 1.244133 0 1 cbr 100 ------- 1 0.0 2.0 29 29
+ 1.244133 1 2 cbr 100 ------- 1 0.0 2.0 29 29
+ 1.246667 0 1 cbr 100 ------- 1 0.0 2.0 37 37
- 1.246667 0 1 cbr 100 ------- 1 0.0 2.0 37 37
r 1.2478 1 2 cbr 100 ------- 1 0.0 2.0 23 23
r 1.2508 0 1 cbr 100 ------- 1 0.0 2.0 30 30
+ 1.2508 1 2 cbr 100 ------- 1 0.0 2.0 30 30
- 1.2508 1 2 cbr 100 ------- 1 0.0 2.0 25 25
+ 1.253333 0 1 cbr 100 ------- 1 0.0 2.0 38 38
- 1.253333 0 1 cbr 100 ------- 1 0.0 2.0 38 38
r 1.2558 1 2 cbr 100 ------- 1 0.0 2.0 24 24
r 1.257467 0 1 cbr 100 ------- 1 0.0 2.0 31 31
+ 1.257467 1 2 cbr 100 ------- 1 0.0 2.0 31 31
- 1.2588 1 2 cbr 100 ------- 1 0.0 2.0 26 26
+ 1.26 0 1 cbr 100 ------- 1 0.0 2.0 39 39
- 1.26 0 1 cbr 100 ------- 1 0.0 2.0 39 39
r 1.2638 1 2 cbr 100 ------- 1 0.0 2.0 25 25
r 1.264133 0 1 cbr 100 ------- 1 0.0 2.0 32 32
+ 1.264133 1 2 cbr 100 ------- 1 0.0 2.0 32 32
+ 1.266667 0 1 cbr 100 ------- 1 0.0 2.0 40 40
- 1.266667 0 1 cbr 100 ------- 1 0.0 2.0 40 40
- 1.2668 1 2 cbr 100 ------- 1 0.0 2.0 27 27
r 1.2708 0 1 cbr 100 ------- 1 0.0 2.0 33 33
+ 1.2708 1 2 cbr 100 ------- 1 0.0 2.0 33 33
r 1.2718 1 2 cbr 100 ------- 1 0.0 2.0 26 26
+ 1.273333 0 1 cbr 100 ------- 1 0.0 2.0 41 41
- 1.273333 0 1 cbr 100 ------- 1 0.0 2.0 41 41
- 1.2748 1 2 cbr 100 ------- 1 0.0 2.0 28 28
r 1.277467 0 1 cbr 100 ------- 1 0.0 2.0 34 34
+ 1.277467 1 2 cbr 100 ------- 1 0.0 2.0 34 34
r 1.2798 1 2 cbr 100 ------- 1 0.0 2.0 27 27
+ 1.28 0 1 cbr 100 ------- 1 0.0 2.0 42 42
- 1.28 0 1 cbr 100 ------- 1 0.0 2.0 42 42
- 1.2828 1 2 cbr 100 ------- 1 0.0 2.0 29 29
r 1.284133 0 1 cbr 100 ------- 1 0.0 2.0 35 35
+ 1.284133 1 2 cbr 100 ------- 1 0.0 2.0 35 35
+ 1.286667 0 1 cbr 100 ------- 1 0.0 2.0 43 43
- 1.286667 0 1 cbr 100 ------- 1 0.0 2.0 43 43
r 1.2878 1 2 cbr 100 ------- 1 0.0 2.0 28 28
r 1.2908 0 1 cbr 100 ------- 1 0.0 2.0 36 36
+ 1.2908 1 2 cbr 100 ------- 1 0.0 2.0 36 36
- 1.2908 1 2 cbr 100 ------- 1 0.0 2.0 30 30
+ 1.293333 0 1 cbr 100 ------- 1 0.0 2.0 44 44
- 1.293333 0 1 cbr 100 ------- 1 0.0 2.0 44 44
r 1.2958 1 2 cbr 100 ------- 1 0.0 2.0 29 29
r 1.297467 0 1 cbr 100 ------- 1 0.0 2.0 37 37
+ 1.297467 1 2 cbr 100 ------- 1 0.0 2.0 37 37
- 1.2988 1 2 cbr 100 ------- 1 0.0 2.0 31 31
+ 1.3 0 1 cbr 100 ------- 1 0.0 2.0 45 45
- 1.3 0 1 cbr 100 ------- 1 0.0 2.0 45 45
r 1.3038 1 2 cbr 100 ------- 1 0.0 2.0 30 30
r 1.304133 0 1 cbr 100 ------- 1 0.0 2.0 38 38
+ 1.304133 1 2 cbr 100 ------- 1 0.0 2.0 38 38
+ 1.306667 0 1 cbr 100 ------- 1 0.0 2.0 46 46
- 1.306667 0 1 cbr 100 ------- 1 0.0 2.0 46 46
- 1.3068 1 2 cbr 100 ------- 1 0.0 2.0 32 32
r 1.3108 0 1 cbr 100 ------- 1 0.0 2.0 39 39
+ 1.3108 1 2 cbr 100 ------- 1 0.0 2.0 39 39
r 1.3118 1 2 cbr 100 ------- 1 0.0 2.0 31 31
+ 1.313333 0 1 cbr 100 ------- 1 0.0 2.0 47 47
- 1.313333 0 1 cbr 100 ------- 1 0.0 2.0 47 47
- 1.3148 1 2 cbr 100 ------- 1 0.0 2.0 33 33
r 1.317467 0 1 cbr 100 ------- 1 0.0 2.0 40 40
+ 1.317467 1 2 cbr 100 ------- 1 0.0 2.0 40 40
r 1.3198 1 2 cbr 100 ------- 1 0.0 2.0 32 32
+ 1.32 0 1 cbr 100 ------- 1 0.0 2.0 48 48
- 1.32 0 1 cbr 100 ------- 1 0.0 2.0 48 48
- 1.3228 1 2 cbr 100 ------- 1 0.0 2.0 34 34
r 1.324133 0 1 cbr 100 ------- 1 0.0 2.0 41 41
+ 1.324133 1 2 cbr 100 ------- 1 0.0 2.0 41 41
+ 1.326667 0 1 cbr 100 ------- 1 0.0 2.0 49 49
- 1.326667 0 1 cbr 100 ------- 1 0.0 2.0 49 49
r 1.3278 1 2 cbr 100 ------- 1 0.0 2.0 33 33
r 1.3308 0 1 cbr 100 ------- 1 0.0 2.0 42 42
+ 1.3308 1 2 cbr 100 ------- 1 0.0 2.0 42 42
- 1.3308 1 2 cbr 100 ------- 1 0.0 2.0 35 35
+ 1.333333 0 1 cbr 100 ------- 1 0.0 2.0 50 50
- 1.333333 0 1 cbr 100 ------- 1 0.0 2.0 50 50
r 1.3358 1 2 cbr 100 ------- 1 0.0 2.0 34 34
r 1.337467 0 1 cbr 100 ------- 1 0.0 2.0 43 43
+ 1.337467 1 2 cbr 100 ------- 1 0.0 2.0 43 43
- 1.3388 1 2 cbr 100 ------- 1 0.0 2.0 36 36
+ 1.34 0 1 cbr 100 ------- 1 0.0 2.0 51 51
- 1.34 0 1 cbr 100 ------- 1 0.0 2.0 51 51
r 1.3438 1 2 cbr 100 ------- 1 0.0 2.0 35 35
r 1.344133 0 1 cbr 100 ------- 1 0.0 2.0 44 44
+ 1.344133 1 2 cbr 100 ------- 1 0.0 2.0 44 44
+ 1.346667 0 1 cbr 100 ------- 1 0.0 2.0 52 52
- 1.346667 0 1 cbr 100 ------- 1 0.0 2.0 52 52
- 1.3468 1 2 cbr 100 ------- 1 0.0 2.0 37 37
r 1.3508 0 1 cbr 100 ------- 1 0.0 2.0 45 45
+ 1.3508 1 2 cbr 100 ------- 1 0.0 2.0 45 45
r 1.3518 1 2 cbr 100 ------- 1 0.0 2.0 36 36
+ 1.353333 0 1 cbr 100 ------- 1 0.0 2.0 53 53
- 1.353333 0 1 cbr 100 ------- 1 0.0 2.0 53 53
- 1.3548 1 2 cbr 100 ------- 1 0.0 2.0 38 38
r 1.357467 0 1 cbr 100 ------- 1 0.0 2.0 46 46
+ 1.357467 1 2 cbr 100 ------- 1 0.0 2.0 46 46
r 1.3598 1 2 cbr 100 ------- 1 0.0 2.0 37 37
+ 1.36 0 1 cbr 100 ------- 1 0.0 2.0 54 54
- 1.36 0 1 cbr 100 ------- 1 0.0 2.0 54 54
- 1.3628 1 2 cbr 100 ------- 1 0.0 2.0 39 39
r 1.364133 0 1 cbr 100 ------- 1 0.0 2.0 47 47
+ 1.364133 1 2 cbr 100 ------- 1 0.0 2.0 47 47
+ 1.366667 0 1 cbr 100 ------- 1 0.0 2.0 55 55
- 1.366667 0 1 cbr 100 ------- 1 0.0 2.0 55 55
r 1.3678 1 2 cbr 100 ------- 1 0.0 2.0 38 38
r 1.3708 0 1 cbr 100 ------- 1 0.0 2.0 48 48
+ 1.3708 1 2 cbr 100 ------- 1 0.0 2.0 48 48
- 1.3708 1 2 cbr 100 ------- 1 0.0 2.0 40 40
+ 1.373333 0 1 cbr 100 ------- 1 0.0 2.0 56 56
- 1.373333 0 1 cbr 100 ------- 1 0.0 2.0 56 56
r 1.3758 1 2 cbr 100 ------- 1 0.0 2.0 39 39
r 1.377467 0 1 cbr 100 ------- 1 0.0 2.0 49 49
+ 1.377467 1 2 cbr 100 ------- 1 0.0 2.0 49 49
- 1.3788 1 2 cbr 100 ------- 1 0.0 2.0 41 41
+ 1.38 0 1 cbr 100 ------- 1 0.0 2.0 57 57
- 1.38 0 1 cbr 100 ------- 1 0.0 2.0 57 57
r 1.3838 1 2 cbr 100 ------- 1 0.0 2.0 40 40
r 1.384133 0 1 cbr 100 ------- 1 0.0 2.0 50 50
+ 1.384133 1 2 cbr 100 ------- 1 0.0 2.0 50 50
+ 1.386667 0 1 cbr 100 ------- 1 0.0 2.0 58 58
- 1.386667 0 1 cbr 100 ------- 1 0.0 2.0 58 58
- 1.3868 1 2 cbr 100 ------- 1 0.0 2.0 42 42
r 1.3908 0 1 cbr 100 ------- 1 0.0 2.0 51 51
+ 1.3908 1 2 cbr 100 ------- 1 0.0 2.0 51 51
r 1.3918 1 2 cbr 100 ------- 1 0.0 2.0 41 41
+ 1.393333 0 1 cbr 100 ------- 1 0.0 2.0 59 59
- 1.393333 0 1 cbr 100 ------- 1 0.0 2.0 59 59
- 1.3948 1 2 cbr 100 ------- 1 0.0 2.0 43 43
r 1.397467 0 1 cbr 100 ------- 1 0.0 2.0 52 52
+ 1.397467 1 2 cbr 100 ------- 1 0.0 2.0 52 52
r 1.3998 1 2 cbr 100 ------- 1 0.0 2.0 42 42
+ 1.4 0 1 cbr 100 ------- 1 0.0 2.0 60 60
- 1.4 0 1 cbr 100 ------- 1 0.0 2.0 60 60
- 1.4028 1 2 cbr 100 ------- 1 0.0 2.0 44 44
r 1.404133 0 1 cbr 100 ------- 1 0.0 2.0 53 53
+ 1.404133 1 2 cbr 100 ------- 1 0.0 2.0 53 53
+ 1.406667 0 1 cbr 100 ------- 1 0.0 2.0 61 61
- 1.406667 0 1 cbr 100 ------- 1 0.0 2.0 61 61
r 1.4078 1 2 cbr 100 ------- 1 0.0 2.0 43 43
r 1.4108 0 1 cbr 100 ------- 1 0.0 2.0 54 54
+ 1.4108 1 2 cbr 100 ------- 1 0.0 2.0 54 54
d 1.4108 1 2 cbr 100 ------- 1 0.0 2.0 54 54
- 1.4108 1 2 cbr 100 ------- 1 0.0 2.0 45 45
+ 1.413333 0 1 cbr 100 ------- 1 0.0 2.0 62 62
- 1.413333 0 1 cbr 100 ------- 1 0.0 2.0 62 62
r 1.4158 1 2 cbr 100 ------- 1 0.0 2.0 44 44
r 1.417467 0 1 cbr 100 ------- 1 0.0 2.0 55 55
+ 1.417467 1 2 cbr 100 ------- 1 0.0 2.0 55 55
- 1.4188 1 2 cbr 100 ------- 1 0.0 2.0 46 46
+ 1.42 0 1 cbr 100 ------- 1 0.0 2.0 63 63
- 1.42 0 1 cbr 100 ------- 1 0.0 2.0 63 63
r 1.4238 1 2 cbr 100 ------- 1 0.0 2.0 45 45
r 1.424133 0 1 cbr 100 ------- 1 0.0 2.0 56 56
+ 1.424133 1 2 cbr 100 ------- 1 0.0 2.0 56 56
+ 1.426667 0 1 cbr 100 ------- 1 0.0 2.0 64 64
- 1.426667 0 1 cbr 100 ------- 1 0.0 2.0 64 64
- 1.4268 1 2 cbr 100 ------- 1 0.0 2.0 47 47
r 1.4308 0 1 cbr 100 ------- 1 0.0 2.0 57 57
+ 1.4308 1 2 cbr 100 ------- 1 0.0 2.0 57 57
r 1.4318 1 2 cbr 100 ------- 1 0.0 2.0 46 46
+ 1.433333 0 1 cbr 100 ------- 1 0.0 2.0 65 65
- 1.433333 0 1 cbr 100 ------- 1 0.0 2.0 65 65
- 1.4348 1 2 cbr 100 ------- 1 0.0 2.0 48 48
r 1.437467 0 1 cbr 100 ------- 1 0.0 2.0 58 58
+ 1.437467 1 2 cbr 100 ------- 1 0.0 2.0 58 58
r 1.4398 1 2 cbr 100 ------- 1 0.0 2.0 47 47
+ 1.44 0 1 cbr 100 ------- 1 0.0 2.0 66 66
- 1.44 0 1 cbr 100 ------- 1 0.0 2.0 66 66
- 1.4428 1 2 cbr 100 ------- 1 0.0 2.0 49 49
r 1.444133 0 1 cbr 100 ------- 1 0.0 2.0 59 59
+ 1.444133 1 2 cbr 100 ------- 1 0.0 2.0 59 59
+ 1.446667 0 1 cbr 100 ------- 1 0.0 2.0 67 67
- 1.446667 0 1 cbr 100 ------- 1 0.0 2.0 67 67
r 1.4478 1 2 cbr 100 ------- 1 0.0 2.0 48 48
r 1.4508 0 1 cbr 100 ------- 1 0.0 2.0 60 60
+ 1.4508 1 2 cbr 100 ------- 1 0.0 2.0 60 60
d 1.4508 1 2 cbr 100 ------- 1 0.0 2.0 60 60
- 1.4508 1 2 cbr 100 ------- 1 0.0 2.0 50 50
+ 1.453333 0 1 cbr 100 ------- 1 0.0 2.0 68 68
- 1.453333 0 1 cbr 100 ------- 1 0.0 2.0 68 68
r 1.4558 1 2 cbr 100 ------- 1 0.0 2.0 49 49
r 1.457467 0 1 cbr 100 ------- 1 0.0 2.0 61 61
+ 1.457467 1 2 cbr 100 ------- 1 0.0 2.0 61 61
- 1.4588 1 2 cbr 100 ------- 1 0.0 2.0 51 51
+ 1.46 0 1 cbr 100 ------- 1 0.0 2.0 69 69
- 1.46 0 1 cbr 100 ------- 1 0.0 2.0 69 69
r 1.4638 1 2 cbr 100 ------- 1 0.0 2.0 50 50
r 1.464133 0 1 cbr 100 ------- 1 0.0 2.0 62 62
+ 1.464133 1 2 cbr 100 ------- 1 0.0 2.0 62 62
+ 1.466667 0 1 cbr 100 ------- 1 0.0 2.0 70 70
- 1.466667 0 1 cbr 100 ------- 1 0.0 2.0 70 70
- 1.4668 1 2 cbr 100 ------- 1 0.0 2.0 52 52
r 1.4708 0 1 cbr 100 ------- 1 0.0 2.0 63 63
+ 1.4708 1 2 cbr 100 ------- 1 0.0 2.0 63 63
r 1.4718 1 2 cbr 100 ------- 1 0.0 2.0 51 51
+ 1.473333 0 1 cbr 100 ------- 1 0.0 2.0 71 71
- 1.473333 0 1 cbr 100 ------- 1 0.0 2.0 71 71
- 1.4748 1 2 cbr 100 ------- 1 0.0 2.0 53 53
r 1.477467 0 1 cbr 100 ------- 1 0.0 2.0 64 64
+ 1.477467 1 2 cbr 100 ------- 1 0.0 2.0 64 64
r 1.4798 1 2 cbr 100 ------- 1 0.0 2.0 52 52
+ 1.48 0 1 cbr 100 ------- 1 0.0 2.0 72 72
- 1.48 0 1 cbr 100 ------- 1 0.0 2.0 72 72
- 1.4828 1 2 cbr 100 ------- 1 0.0 2.0 55 55
r 1.484133 0 1 cbr 100 ------- 1 0.0 2.0 65 65
+ 1.484133 1 2 cbr 100 ------- 1 0.0 2.0 65 65
+ 1.486667 0 1 cbr 100 ------- 1 0.0 2.0 73 73
- 1.486667 0 1 cbr 100 ------- 1 0.0 2.0 73 73
r 1.4878 1 2 cbr 100 ------- 1 0.0 2.0 53 53
r 1.4908 0 1 cbr 100 ------- 1 0.0 2.0 66 66
+ 1.4908 1 2 cbr 100 ------- 1 0.0 2.0 66 66
d 1.4908 1 2 cbr 100 ------- 1 0.0 2.0 66 66
- 1.4908 1 2 cbr 100 ------- 1 0.0 2.0 56 56
+ 1.493333 0 1 cbr 100 ------- 1 0.0 2.0 74 74
- 1.493333 0 1 cbr 100 ------- 1 0.0 2.0 74 74
r 1.4958 1 2 cbr 100 ------- 1 0.0 2.0 55 55
r 1.497467 0 1 cbr 100 ------- 1 0.0 2.0 67 67
+ 1.497467 1 2 cbr 100 ------- 1 0.0 2.0 67 67
- 1.4988 1 2 cbr 100 ------- 1 0.0 2.0 57 57
+ 1.5 0 1 cbr 100 ------- 1 0.0 2.0 75 75
- 1.5 0 1 cbr 100 ------- 1 0.0 2.0 75 75
r 1.5038 1 2 cbr 100 ------- 1 0.0 2.0 56 56
r 1.504133 0 1 cbr 100 ------- 1 0.0 2.0 68 68
+ 1.504133 1 2 cbr 100 ------- 1 0.0 2.0 68 68
+ 1.506667 0 1 cbr 100 ------- 1 0.0 2.0 76 76
- 1.506667 0 1 cbr 100 ------- 1 0.0 2.0 76 76
- 1.5068 1 2 cbr 100 ------- 1 0.0 2.0 58 58
r 1.5108 0 1 cbr 100 ------- 1 0.0 2.0 69 69
+ 1.5108 1 2 cbr 100 ------- 1 0.0 2.0 69 69
r 1.5118 1 2 cbr 100 ------- 1 0.0 2.0 57 57
+ 1.513333 0 1 cbr 100 ------- 1 0.0 2.0 77 77
- 1.513333 0 1 cbr 100 ------- 1 0.0 2.0 77 77
- 1.5148 1 2 cbr 100 ------- 1 0.0 2.0 59 59
r 1.517467 0 1 cbr 100 ------- 1 0.0 2.0 70 70
+ 1.517467 1 2 cbr 100 ------- 1 0.0 2.0 70 70
r 1.5198 1 2 cbr 100 ------- 1 0.0 2.0 58 58
+ 1.52 0 1 cbr 100 ------- 1 0.0 2.0 78 78
- 1.52 0 1 cbr 100 ------- 1 0.0 2.0 78 78
- 1.5228 1 2 cbr 100 ------- 1 0.0 2.0 61 61
r 1.524133 0 1 cbr 100 ------- 1 0.0 2.0 71 71
+ 1.524133 1 2 cbr 100 ------- 1 0.0 2.0 71 71
+ 1.526667 0 1 cbr 100 ------- 1 0.0 2.0 79 79
- 1.526667 0 1 cbr 100 ------- 1 0.0 2.0 79 79
r 1.5278 1 2 cbr 100 ------- 1 0.0 2.0 59 59
r 1.5308 0 1 cbr 100 ------- 1 0.0 2.0 72 72
+ 1.5308 1 2 cbr 100 ------- 1 0.0 2.0 72 72
d 1.5308 1 2 cbr 100 ------- 1 0.0 2.0 72 72
- 1.5308 1 2 cbr 100 ------- 1 0.0 2.0 62 62
+ 1.533333 0 1 cbr 100 ------- 1 0.0 2.0 80 80
- 1.533333 0 1 cbr 100 ------- 1 0.0 2.0 80 80
r 1.5358 1 2 cbr 100 ------- 1 0.0 2.0 61 61
r 1.537467 0 1 cbr 100 ------- 1 0.0 2.0 73 73
+ 1.537467 1 2 cbr 100 ------- 1 0.0 2.0 73 73
- 1.5388 1 2 cbr 100 ------- 1 0.0 2.0 63 63
+ 1.54 0 1 cbr 100 ------- 1 0.0 2.0 81 81
- 1.54 0 1 cbr 100 ------- 1 0.0 2.0 81 81
r 1.5438 1 2 cbr 100 ------- 1 0.0 2.0 62 62
r 1.544133 0 1 cbr 100 ------- 1 0.0 2.0 74 74
+ 1.544133 1 2 cbr 100 ------- 1 0.0 2.0 74 74
+ 1.546667 0 1 cbr 100 ------- 1 0.0 2.0 82 82
- 1.546667 0 1 cbr 100 ------- 1 0.0 2.0 82 82
- 1.5468 1 2 cbr 100 ------- 1 0.0 2.0 64 64
r 1.5508 0 1 cbr 100 ------- 1 0.0 2.0 75 75
+ 1.5508 1 2 cbr 100 ------- 1 0.0 2.0 75 75
r 1.5518 1 2 cbr 100 ------- 1 0.0 2.0 63 63
+ 1.553333 0 1 cbr 100 ------- 1 0.0 2.0 83 83
- 1.553333 0 1 cbr 100 ------- 1 0.0 2.0 83 83
- 1.5548 1 2 cbr 100 ------- 1 0.0 2.0 65 65
r 1.557467 0 1 cbr 100 ------- 1 0.0 2.0 76 76
+ 1.557467 1 2 cbr 100 ------- 1 0.0 2.0 76 76
r 1.5598 1 2 cbr 100 ------- 1 0.0 2.0 64 64
+ 1.56 0 1 cbr 100 ------- 1 0.0 2.0 84 84
- 1.56 0 1 cbr 100 ------- 1 0.0 2.0 84 84
- 1.5628 1 2 cbr 100 ------- 1 0.0 2.0 67 67
r 1.564133 0 1 cbr 100 ------- 1 0.0 2.0 77 77
+ 1.564133 1 2 cbr 100 ------- 1 0.0 2.0 77 77
+ 1.566667 0 1 cbr 100 ------- 1 0.0 2.0 85 85
- 1.566667 0 1 cbr 100 ------- 1 0.0 2.0 85 85
r 1.5678 1 2 cbr 100 ------- 1 0.0 2.0 65 65
r 1.5708 0 1 cbr 100 ------- 1 0.0 2.0 78 78
+ 1.5708 1 2 cbr 100 ------- 1 0.0 2.0 78 78
d 1.5708 1 2 cbr 100 ------- 1 0.0 2.0 78 78
- 1.5708 1 2 cbr 100 ------- 1 0.0 2.0 68 68
+ 1.573333 0 1 cbr 100 ------- 1 0.0 2.0 86 86
- 1.573333 0 1 cbr 100 ------- 1 0.0 2.0 86 86
r 1.5758 1 2 cbr 100 ------- 1 0.0 2.0 67 67
r 1.577467 0 1 cbr 100 ------- 1 0.0 2.0 79 79
+ 1.577467 1 2 cbr 100 ------- 1 0.0 2.0 79 79
- 1.5788 1 2 cbr 100 ------- 1 0.0 2.0 69 69
+ 1.58 0 1 cbr 100 ------- 1 0.0 2.0 87 87
- 1.58 0 1 cbr 100 ------- 1 0.0 2.0 87 87
r 1.5838 1 2 cbr 100 ------- 1 0.0 2.0 68 68
r 1.584133 0 1 cbr 100 ------- 1 0.0 2.0 80 80
+ 1.584133 1 2 cbr 100 ------- 1 0.0 2.0 80 80
+ 1.586667 0 1 cbr 100 ------- 1 0.0 2.0 88 88
- 1.586667 0 1 cbr 100 ------- 1 0.0 2.0 88 88
- 1.5868 1 2 cbr 100 ------- 1 0.0 2.0 70 70
r 1.5908 0 1 cbr 100 ------- 1 0.0 2.0 81 81
+ 1.5908 1 2 cbr 100 ------- 1 0.0 2.0 81 81
r 1.5918 1 2 cbr 100 ------- 1 0.0 2.0 69 69
+ 1.593333 0 1 cbr 100 ------- 1 0.0 2.0 89 89
- 1.593333 0 1 cbr 100 ------- 1 0.0 2.0 89 89
- 1.5948 1 2 cbr 100 ------- 1 0.0 2.0 71 71
r 1.597467 0 1 cbr 100 ------- 1 0.0 2.0 82 82
+ 1.597467 1 2 cbr 100 ------- 1 0.0 2.0 82 82
r 1.5998 1 2 cbr 100 ------- 1 0.0 2.0 70 70
+ 1.6 0 1 cbr 100 ------- 1 0.0 2.0 90 90
- 1.6 0 1 cbr 100 ------- 1 0.0 2.0 90 90
- 1.6028 1 2 cbr 100 ------- 1 0.0 2.0 73 73
r 1.604133 0 1 cbr 100 ------- 1 0.0 2.0 83 83
+ 1.604133 1 2 cbr 100 ------- 1 0.0 2.0 83 83
+ 1.606667 0 1 cbr 100 ------- 1 0.0 2.0 91 91
- 1.606667 0 1 cbr 100 ------- 1 0.0 2.0 91 91
r 1.6078 1 2 cbr 100 ------- 1 0.0 2.0 71 71
r 1.6108 0 1 cbr 100 ------- 1 0.0 2.0 84 84
+ 1.6108 1 2 cbr 100 ------- 1 0.0 2.0 84 84
d 1.6108 1 2 cbr 100 ------- 1 0.0 2.0 84 84
- 1.6108 1 2 cbr 100 ------- 1 0.0 2.0 74 74
+ 1.613333 0 1 cbr 100 ------- 1 0.0 2.0 92 92
- 1.613333 0 1 cbr 100 ------- 1 0.0 2.0 92 92
r 1.6158 1 2 cbr 100 ------- 1 0.0 2.0 73 73
r 1.617467 0 1 cbr 100 ------- 1 0.0 2.0 85 85
+ 1.617467 1 2 cbr 100 ------- 1 0.0 2.0 85 85
- 1.6188 1 2 cbr 100 ------- 1 0.0 2.0 75 75
+ 1.62 0 1 cbr 100 ------- 1 0.0 2.0 93 93
- 1.62 0 1 cbr 100 ------- 1 0.0 2.0 93 93
r 1.6238 1 2 cbr 100 ------- 1 0.0 2.0 74 74
r 1.624133 0 1 cbr 100 ------- 1 0.0 2.0 86 86
+ 1.624133 1 2 cbr 100 ------- 1 0.0 2.0 86 86
+ 1.626667 0 1 cbr 100 ------- 1 0.0 2.0 94 94
- 1.626667 0 1 cbr 100 ------- 1 0.0 2.0 94 94
- 1.6268 1 2 cbr 100 ------- 1 0.0 2.0 76 76
r 1.6308 0 1 cbr 100 ------- 1 0.0 2.0 87 87
+ 1.6308 1 2 cbr 100 ------- 1 0.0 2.0 87 87
r 1.6318 1 2 cbr 100 ------- 1 0.0 2.0 75 75
+ 1.633333 0 1 cbr 100 ------- 1 0.0 2.0 95 95
- 1.633333 0 1 cbr 100 ------- 1 0.0 2.0 95 95
- 1.6348 1 2 cbr 100 ------- 1 0.0 2.0 77 77
r 1.637467 0 1 cbr 100 ------- 1 0.0 2.0 88 88
+ 1.637467 1 2 cbr 100 ------- 1 0.0 2.0 88 88
r 1.6398 1 2 cbr 100 ------- 1 0.0 2.0 76 76
+ 1.64 0 1 cbr 100 ------- 1 0.0 2.0 96 96
- 1.64 0 1 cbr 100 ------- 1 0.0 2.0 96 96
- 1.6428 1 2 cbr 100 ------- 1 0.0 2.0 79 79
r 1.644133 0 1 cbr 100 ------- 1 0.0 2.0 89 89
+ 1.644133 1 2 cbr 100 ------- 1 0.0 2.0 89 89
+ 1.646667 0 1 cbr 100 ------- 1 0.0 2.0 97 97
- 1.646667 0 1 cbr 100 ------- 1 0.0 2.0 97 97
r 1.6478 1 2 cbr 100 ------- 1 0.0 2.0 77 77
r 1.6508 0 1 cbr 100 ------- 1 0.0 2.0 90 90
+ 1.6508 1 2 cbr 100 ------- 1 0.0 2.0 90 90
d 1.6508 1 2 cbr 100 ------- 1 0.0 2.0 90 90
- 1.6508 1 2 cbr 100 ------- 1 0.0 2.0 80 80
+ 1.653333 0 1 cbr 100 ------- 1 0.0 2.0 98 98
- 1.653333 0 1 cbr 100 ------- 1 0.0 2.0 98 98
r 1.6558 1 2 cbr 100 ------- 1 0.0 2.0 79 79
r 1.657467 0 1 cbr 100 ------- 1 0.0 2.0 91 91
+ 1.657467 1 2 cbr 100 ------- 1 0.0 2.0 91 91
- 1.6588 1 2 cbr 100 ------- 1 0.0 2.0 81 81
+ 1.66 0 1 cbr 100 ------- 1 0.0 2.0 99 99
- 1.66 0 1 cbr 100 ------- 1 0.0 2.0 99 99
r 1.6638 1 2 cbr 100 ------- 1 0.0 2.0 80 80
r 1.664133 0 1 cbr 100 ------- 1 0.0 2.0 92 92
+ 1.664133 1 2 cbr 100 ------- 1 0.0 2.0 92 92
+ 1.666667 0 1 cbr 100 ------- 1 0.0 2.0 100 100
- 1.666667 0 1 cbr 100 ------- 1 0.0 2.0 100 100
- 1.6668 1 2 cbr 100 ------- 1 0.0 2.0 82 82
r 1.6708 0 1 cbr 100 ------- 1 0.0 2.0 93 93
+ 1.6708 1 2 cbr 100 ------- 1 0.0 2.0 93 93
r 1.6718 1 2 cbr 100 ------- 1 0.0 2.0 81 81
+ 1.673333 0 1 cbr 100 ------- 1 0.0 2.0 101 101
- 1.673333 0 1 cbr 100 ------- 1 0.0 2.0 101 101
- 1.6748 1 2 cbr 100 ------- 1 0.0 2.0 83 83
r 1.677467 0 1 cbr 100 ------- 1 0.0 2.0 94 94
+ 1.677467 1 2 cbr 100 ------- 1 0.0 2.0 94 94
r 1.6798 1 2 cbr 100 ------- 1 0.0 2.0 82 82
+ 1.68 0 1 cbr 100 ------- 1 0.0 2.0 102 102
- 1.68 0 1 cbr 100 ------- 1 0.0 2.0 102 102
- 1.6828 1 2 cbr 100 ------- 1 0.0 2.0 85 85
r 1.684133 0 1 cbr 100 ------- 1 0.0 2.0 95 95
+ 1.684133 1 2 cbr 100 ------- 1 0.0 2.0 95 95
+ 1.686667 0 1 cbr 100 ------- 1 0.0 2.0 103 103
- 1.686667 0 1 cbr 100 ------- 1 0.0 2.0 103 103
r 1.6878 1 2 cbr 100 ------- 1 0.0 2.0 83 83
r 1.6908 0 1 cbr 100 ------- 1 0.0 2.0 96 96
+ 1.6908 1 2 cbr 100 ------- 1 0.0 2.0 96 96
d 1.6908 1 2 cbr 100 ------- 1 0.0 2.0 96 96
- 1.6908 1 2 cbr 100 ------- 1 0.0 2.0 86 86
+ 1.693333 0 1 cbr 100 ------- 1 0.0 2.0 104 104
- 1.693333 0 1 cbr 100 ------- 1 0.0 2.0 104 104
r 1.6958 1 2 cbr 100 ------- 1 0.0 2.0 85 85
r 1.697467 0 1 cbr 100 ------- 1 0.0 2.0 97 97
+ 1.697467 1 2 cbr 100 ------- 1 0.0 2.0 97 97
- 1.6988 1 2 cbr 100 ------- 1 0.0 2.0 87 87
+ 1.7 0 1 cbr 100 ------- 1 0.0 2.0 105 105
- 1.7 0 1 cbr 100 ------- 1 0.0 2.0 105 105
r 1.7038 1 2 cbr 100 ------- 1 0.0 2.0 86 86
r 1.704133 0 1 cbr 100 ------- 1 0.0 2.0 98 98
+ 1.704133 1 2 cbr 100 ------- 1 0.0 2.0 98 98
+ 1.706667 0 1 cbr 100 ------- 1 0.0 2.0 106 106
- 1.706667 0 1 cbr 100 ------- 1 0.0 2.0 106 106
- 1.7068 1 2 cbr 100 ------- 1 0.0 2.0 88 88
r 1.7108 0 1 cbr 100 ------- 1 0.0 2.0 99 99
+ 1.7108 1 2 cbr 100 ------- 1 0.0 2.0 99 99
r 1.7118 1 2 cbr 100 ------- 1 0.0 2.0 87 87
+ 1.713333 0 1 cbr 100 ------- 1 0.0 2.0 107 107
- 1.713333 0 1 cbr 100 ------- 1 0.0 2.0 107 107
- 1.7148 1 2 cbr 100 ------- 1 0.0 2.0 89 89
r 1.717467 0 1 cbr 100 ------- 1 0.0 2.0 100 100
+ 1.717467 1 2 cbr 100 ------- 1 0.0 2.0 100 100
r 1.7198 1 2 cbr 100 ------- 1 0.0 2.0 88 88
+ 1.72 0 1 cbr 100 ------- 1 0.0 2.0 108 108
- 1.72 0 1 cbr 100 ------- 1 0.0 2.0 108 108
- 1.7228 1 2 cbr 100 ------- 1 0.0 2.0 91 91
r 1.724133 0 1 cbr 100 ------- 1 0.0 2.0 101 101
+ 1.724133 1 2 cbr 100 ------- 1 0.0 2.0 101 101
+ 1.726667 0 1 cbr 100 ------- 1 0.0 2.0 109 109
- 1.726667 0 1 cbr 100 ------- 1 0.0 2.0 109 109
r 1.7278 1 2 cbr 100 ------- 1 0.0 2.0 89 89
r 1.7308 0 1 cbr 100 ------- 1 0.0 2.0 102 102
+ 1.7308 1 2 cbr 100 ------- 1 0.0 2.0 102 102
d 1.7308 1 2 cbr 100 ------- 1 0.0 2.0 102 102
- 1.7308 1 2 cbr 100 ------- 1 0.0 2.0 92 92
+ 1.733333 0 1 cbr 100 ------- 1 0.0 2.0 110 110
- 1.733333 0 1 cbr 100 ------- 1 0.0 2.0 110 110
r 1.7358 1 2 cbr 100 ------- 1 0.0 2.0 91 91
r 1.737467 0 1 cbr 100 ------- 1 0.0 2.0 103 103
+ 1.737467 1 2 cbr 100 ------- 1 0.0 2.0 103 103
- 1.7388 1 2 cbr 100 ------- 1 0.0 2.0 93 93
+ 1.74 0 1 cbr 100 ------- 1 0.0 2.0 111 111
- 1.74 0 1 cbr 100 ------- 1 0.0 2.0 111 111
r 1.7438 1 2 cbr 100 ------- 1 0.0 2.0 92 92
r 1.744133 0 1 cbr 100 ------- 1 0.0 2.0 104 104
+ 1.744133 1 2 cbr 100 ------- 1 0.0 2.0 104 104
+ 1.746667 0 1 cbr 100 ------- 1 0.0 2.0 112 112
- 1.746667 0 1 cbr 100 ------- 1 0.0 2.0 112 112
- 1.7468 1 2 cbr 100 ------- 1 0.0 2.0 94 94
r 1.7508 0 1 cbr 100 ------- 1 0.0 2.0 105 105
+ 1.7508 1 2 cbr 100 ------- 1 0.0 2.0 105 105
r 1.7518 1 2 cbr 100 ------- 1 0.0 2.0 93 93
+ 1.753333 0 1 cbr 100 ------- 1 0.0 2.0 113 113
- 1.753333 0 1 cbr 100 ------- 1 0.0 2.0 113 113
- 1.7548 1 2 cbr 100 ------- 1 0.0 2.0 95 95
r 1.757467 0 1 cbr 100 ------- 1 0.0 2.0 106 106
+ 1.757467 1 2 cbr 100 ------- 1 0.0 2.0 106 106
r 1.7598 1 2 cbr 100 ------- 1 0.0 2.0 94 94
+ 1.76 0 1 cbr 100 ------- 1 0.0 2.0 114 114
- 1.76 0 1 cbr 100 ------- 1 0.0 2.0 114 114
- 1.7628 1 2 cbr 100 ------- 1 0.0 2.0 97 97
r 1.764133 0 1 cbr 100 ------- 1 0.0 2.0 107 107
+ 1.764133 1 2 cbr 100 ------- 1 0.0 2.0 107 107
+ 1.766667 0 1 cbr 100 ------- 1 0.0 2.0 115 115
- 1.766667 0 1 cbr 100 ------- 1 0.0 2.0 115 115
r 1.7678 1 2 cbr 100 ------- 1 0.0 2.0 95 95
r 1.7708 0 1 cbr 100 ------- 1 0.0 2.0 108 108
+ 1.7708 1 2 cbr 100 ------- 1 0.0 2.0 108 108
d 1.7708 1 2 cbr 100 ------- 1 0.0 2.0 108 108
- 1.7708 1 2 cbr 100 ------- 1 0.0 2.0 98 98
+ 1.773333 0 1 cbr 100 ------- 1 0.0 2.0 116 116
- 1.773333 0 1 cbr 100 ------- 1 0.0 2.0 116 116
r 1.7758 1 2 cbr 100 ------- 1 0.0 2.0 97 97
r 1.777467 0 1 cbr 100 ------- 1 0.0 2.0 109 109
+ 1.777467 1 2 cbr 100 ------- 1 0.0 2.0 109 109
- 1.7788 1 2 cbr 100 ------- 1 0.0 2.0 99 99
+ 1.78 0 1 cbr 100 ------- 1 0.0 2.0 117 117
- 1.78 0 1 cbr 100 ------- 1 0.0 2.0 117 117
r 1.7838 1 2 cbr 100 ------- 1 0.0 2.0 98 98
r 1.784133 0 1 cbr 100 ------- 1 0.0 2.0 110 110
+ 1.784133 1 2 cbr 100 ------- 1 0.0 2.0 110 110
+ 1.786667 0 1 cbr 100 ------- 1 0.0 2.0 118 118
- 1.786667 0 1 cbr 100 ------- 1 0.0 2.0 118 118
- 1.7868 1 2 cbr 100 ------- 1 0.0 2.0 100 100
r 1.7908 0 1 cbr 100 ------- 1 0.0 2.0 111 111
+ 1.7908 1 2 cbr 100 ------- 1 0.0 2.0 111 111