+ 1 0 1 cbr 100 ------- 1 0.0 2.0 0 0
- 1 0 1 cbr 100 ------- 1 0.0 2.0 0 0
+ 1.01 0 1 cbr 100 ------- 1 0.0 2.0 1 1
- 1.01 0 1 cbr 100 ------- 1 0.0 2.0 1 1
+ 1.02 0 1 cbr 100 ------- 1 0.0 2.0 2 2
- 1.02 0 1 cbr 100 ------- 1 0.0 2.0 2 2
+ 1.03 0 1 cbr 100 ------- 1 0.0 2.0 3 3
- 1.03 0 1 cbr 100 ------- 1 0.0 2.0 3 3
+ 1.04 0 1 cbr 100 ------- 1 0.0 2.0 4 4
- 1.04 0 1 cbr 100 ------- 1 0.0 2.0 4 4
+ 1.05 0 1 cbr 100 ------- 1 0.0 2.0 5 5
- 1.05 0 1 cbr 100 ------- 1 0.0 2.0 5 5
r 1.0508 0 1 cbr 100 ------- 1 0.0 2.0 0 0
+ 1.0508 1 2 cbr 100 ------- 1 0.0 2.0 0 0
- 1.0508 1 2 cbr 100 ------- 1 0.0 2.0 0 0
+ 1.06 0 1 cbr 100 ------- 1 0.0 2.0 6 6
- 1.06 0 1 cbr 100 ------- 1 0.0 2.0 6 6
r 1.0608 0 1 cbr 100 ------- 1 0.0 2.0 1 1
+ 1.0608 1 2 cbr 100 ------- 1 0.0 2.0 1 1
- 1.0608 1 2 cbr 100 ------- 1 0.0 2.0 1 1
r 1.0638 1 2 cbr 100 ------- 1 0.0 2.0 0 0
+ 1.07 0 1 cbr 100 ------- 1 0.0 2.0 7 7
- 1.07 0 1 cbr 100 ------- 1 0.0 2.0 7 7
r 1.0708 0 1 cbr 100 ------- 1 0.0 2.0 2 2
+ 1.0708 1 2 cbr 100 ------- 1 0.0 2.0 2 2
- 1.0708 1 2 cbr 100 ------- 1 0.0 2.0 2 2
r 1.0738 1 2 cbr 100 ------- 1 0.0 2.0 1 1
+ 1.08 0 1 cbr 100 ------- 1 0.0 2.0 8 8
- 1.08 0 1 cbr 100 ------- 1 0.0 2.0 8 8
r 1.0808 0 1 cbr 100 ------- 1 0.0 2.0 3 3
+ 1.0808 1 2 cbr 100 ------- 1 0.0 2.0 3 3
- 1.0808 1 2 cbr 100 ------- 1 0.0 2.0 3 3
r 1.0838 1 2 cbr 100 ------- 1 0.0 2.0 2 2
+ 1.09 0 1 cbr 100 ------- 1 0.0 2.0 9 9
- 1.09 0 1 cbr 100 ------- 1 0.0 2.0 9 9
r 1.0908 0 1 cbr 100 ------- 1 0.0 2.0 4 4
+ 1.0908 1 2 cbr 100 ------- 1 0.0 2.0 4 4
- 1.0908 1 2 cbr 100 ------- 1 0.0 2.0 4 4
r 1.0938 1 2 cbr 100 ------- 1 0.0 2.0 3 3
+ 1.1 0 1 cbr 100 ------- 1 0.0 2.0 10 10
- 1.1 0 1 cbr 100 ------- 1 0.0 2.0 10 10
r 1.1008 0 1 cbr 100 ------- 1 0.0 2.0 5 5
+ 1.1008 1 2 cbr 100 ------- 1 0.0 2.0 5 5
- 1.1008 1 2 cbr 100 ------- 1 0.0 2.0 5 5
r 1.1038 1 2 cbr 100 ------- 1 0.0 2.0 4 4
+ 1.11 0 1 cbr 100 ------- 1 0.0 2.0 11 11
- 1.11 0 1 cbr 100 ------- 1 0.0 2.0 11 11
r 1.1108 0 1 cbr 100 ------- 1 0.0 2.0 6 6
+ 1.1108 1 2 cbr 100 ------- 1 0.0 2.0 6 6
- 1.1108 1 2 cbr 100 ------- 1 0.0 2.0 6 6
r 1.1138 1 2 cbr 100 ------- 1 0.0 2.0 5 5
+ 1.12 0 1 cbr 100 ------- 1 0.0 2.0 12 12
- 1.12 0 1 cbr 100 ------- 1 0.0 2.0 12 12
r 1.1208 0 1 cbr 100 ------- 1 0.0 2.0 7 7
+ 1.1208 1 2 cbr 100 ------- 1 0.0 2.0 7 7
- 1.1208 1 2 cbr 100 ------- 1 0.0 2.0 7 7
r 1.1238 1 2 cbr 100 ------- 1 0.0 2.0 6 6
+ 1.13 0 1 cbr 100 ------- 1 0.0 2.0 13 13
- 1.13 0 1 cbr 100 ------- 1 0.0 2.0 13 13
r 1.1308 0 1 cbr 100 ------- 1 0.0 2.0 8 8
+ 1.1308 1 2 cbr 100 ------- 1 0.0 2.0 8 8
- 1.1308 1 2 cbr 100 ------- 1 0.0 2.0 8 8
r 1.1338 1 2 cbr 100 ------- 1 0.0 2.0 7 7
+ 1.14 0 1 cbr 100 ------- 1 0.0 2.0 14 14
- 1.14 0 1 cbr 100 ------- 1 0.0 2.0 14 14
r 1.1408 0 1 cbr 100 ------- 1 0.0 2.0 9 9
+ 1.1408 1 2 cbr 100 ------- 1 0.0 2.0 9 9
- 1.1408 1 2 cbr 100 ------- 1 0.0 2.0 9 9
r 1.1438 1 2 cbr 100 ------- 1 0.0 2.0 8 8
+ 1.15 0 1 cbr 100 ------- 1 0.0 2.0 15 15
- 1.15 0 1 cbr 100 ------- 1 0.0 2.0 15 15
r 1.1508 0 1 cbr 100 ------- 1 0.0 2.0 10 10
+ 1.1508 1 2 cbr 100 ------- 1 0.0 2.0 10 10
- 1.1508 1 2 cbr 100 ------- 1 0.0 2.0 10 10
r 1.1538 1 2 cbr 100 ------- 1 0.0 2.0 9 9
+ 1.16 0 1 cbr 100 ------- 1 0.0 2.0 16 16
- 1.16 0 1 cbr 100 ------- 1 0.0 2.0 16 16
r 1.1608 0 1 cbr 100 ------- 1 0.0 2.0 11 11
+ 1.1608 1 2 cbr 100 ------- 1 0.0 2.0 11 11
- 1.1608 1 2 cbr 100 ------- 1 0.0 2.0 11 11
r 1.1638 1 2 cbr 100 ------- 1 0.0 2.0 10 10
+ 1.17 0 1 cbr 100 ------- 1 0.0 2.0 17 17
- 1.17 0 1 cbr 100 ------- 1 0.0 2.0 17 17
r 1.1708 0 1 cbr 100 ------- 1 0.0 2.0 12 12
+ 1.1708 1 2 cbr 100 ------- 1 0.0 2.0 12 12
- 1.1708 1 2 cbr 100 ------- 1 0.0 2.0 12 12
r 1.1738 1 2 cbr 100 ------- 1 0.0 2.0 11 11
+ 1.18 0 1 cbr 100 ------- 1 0.0 2.0 18 18
- 1.18 0 1 cbr 100 ------- 1 0.0 2.0 18 18
r 1.1808 0 1 cbr 100 ------- 1 0.0 2.0 13 13
+ 1.1808 1 2 cbr 100 ------- 1 0.0 2.0 13 13
- 1.1808 1 2 cbr 100 ------- 1 0.0 2.0 13 13
r 1.1838 1 2 cbr 100 ------- 1 0.0 2.0 12 12
+ 1.19 0 1 cbr 100 ------- 1 0.0 2.0 19 19
- 1.19 0 1 cbr 100 ------- 1 0.0 2.0 19 19
r 1.1908 0 1 cbr 100 ------- 1 0.0 2.0 14 14
+ 1.1908 1 2 cbr 100 ------- 1 0.0 2.0 14 14
- 1.1908 1 2 cbr 100 ------- 1 0.0 2.0 14 14
r 1.1938 1 2 cbr 100 ------- 1 0.0 2.0 13 13
+ 1.2 0 1 cbr 100 ------- 1 0.0 2.0 20 20
- 1.2 0 1 cbr 100 ------- 1 0.0 2.0 20 20
r 1.2008 0 1 cbr 100 ------- 1 0.0 2.0 15 15
+ 1.2008 1 2 cbr 100 ------- 1 0.0 2.0 15 15
- 1.2008 1 2 cbr 100 ------- 1 0.0 2.0 15 15
r 1.2038 1 2 cbr 100 ------- 1 0.0 2.0 14 14
+ 1.21 0 1 cbr 100 ------- 1 0.0 2.0 21 21
- 1.21 0 1 cbr 100 ------- 1 0.0 2.0 21 21
r 1.2108 0 1 cbr 100 ------- 1 0.0 2.0 16 16
+ 1.2108 1 2 cbr 100 ------- 1 0.0 2.0 16 16
- 1.2108 1 2 cbr 100 ------- 1 0.0 2.0 16 16
r 1.2138 1 2 cbr 100 ------- 1 0.0 2.0 15 15
+ 1.22 0 1 cbr 100 ------- 1 0.0 2.0 22 22
- 1.22 0 1 cbr 100 ------- 1 0.0 2.0 22 22
r 1.2208 0 1 cbr 100 ------- 1 0.0 2.0 17 17
+ 1.2208 1 2 cbr 100 ------- 1 0.0 2.0 17 17
- 1.2208 1 2 cbr 100 ------- 1 0.0 2.0 17 17
r 1.2238 1 2 cbr 100 ------- 1 0.0 2.0 16 16
+ 1.23 0 1 cbr 100 ------- 1 0.0 2.0 23 23
- 1.23 0 1 cbr 100 ------- 1 0.0 2.0 23 23
r 1.2308 0 1 cbr 100 ------- 1 0.0 2.0 18 18
+ 1.2308 1 2 cbr 100 ------- 1 0.0 2.0 18 18
- 1.2308 1 2 cbr 100 ------- 1 0.0 2.0 18 18
r 1.2338 1 2 cbr 100 ------- 1 0.0 2.0 17 17
+ 1.24 0 1 cbr 100 ------- 1 0.0 2.0 24 24
- 1.24 0 1 cbr 100 ------- 1 0.0 2.0 24 24
r 1.2408 0 1 cbr 100 ------- 1 0.0 2.0 19 19
+ 1.2408 1 2 cbr 100 ------- 1 0.0 2.0 19 19
- 1.2408 1 2 cbr 100 ------- 1 0.0 2.0 19 19
r 1.2438 1 2 cbr 100 ------- 1 0.0 2.0 18 18
+ 1.25 0 1 cbr 100 ------- 1 0.0 2.0 25 25
- 1.25 0 1 cbr 100 ------- 1 0.0 2.0 25 25
r 1.2508 0 1 cbr 100 ------- 1 0.0 2.0 20 20
+ 1.2508 1 2 cbr 100 ------- 1 0.0 2.0 20 20
- 1.2508 1 2 cbr 100 ------- 1 0.0 2.0 20 20
r 1.2538 1 2 cbr 100 ------- 1 0.0 2.0 19 19
+ 1.26 0 1 cbr 100 ------- 1 0.0 2.0 26 26
- 1.26 0 1 cbr 100 ------- 1 0.0 2.0 26 26
r 1.2608 0 1 cbr 100 ------- 1 0.0 2.0 21 21
+ 1.2608 1 2 cbr 100 ------- 1 0.0 2.0 21 21
- 1.2608 1 2 cbr 100 ------- 1 0.0 2.0 21 21
r 1.2638 1 2 cbr 100 ------- 1 0.0 2.0 20 20
+ 1.27 0 1 cbr 100 ------- 1 0.0 2.0 27 27
- 1.27 0 1 cbr 100 ------- 1 0.0 2.0 27 27
r 1.2708 0 1 cbr 100 ------- 1 0.0 2.0 22 22
+ 1.2708 1 2 cbr 100 ------- 1 0.0 2.0 22 22
- 1.2708 1 2 cbr 100 ------- 1 0.0 2.0 22 22
r 1.2738 1 2 cbr 100 ------- 1 0.0 2.0 21 21
+ 1.28 0 1 cbr 100 ------- 1 0.0 2.0 28 28
- 1.28 0 1 cbr 100 ------- 1 0.0 2.0 28 28
r 1.2808 0 1 cbr 100 ------- 1 0.0 2.0 23 23
+ 1.2808 1 2 cbr 100 ------- 1 0.0 2.0 23 23
- 1.2808 1 2 cbr 100 ------- 1 0.0 2.0 23 23
r 1.2838 1 2 cbr 100 ------- 1 0.0 2.0 22 22
+ 1.29 0 1 cbr 100 ------- 1 0.0 2.0 29 29
- 1.29 0 1 cbr 100 ------- 1 0.0 2.0 29 29
r 1.2908 0 1 cbr 100 ------- 1 0.0 2.0 24 24
+ 1.2908 1 2 cbr 100 ------- 1 0.0 2.0 24 24
- 1.2908 1 2 cbr 100 ------- 1 0.0 2.0 24 24
r 1.2938 1 2 cbr 100 ------- 1 0.0 2.0 23 23
+ 1.3 0 1 cbr 100 ------- 1 0.0 2.0 30 30
- 1.3 0 1 cbr 100 ------- 1 0.0 2.0 30 30
r 1.3008 0 1 cbr 100 ------- 1 0.0 2.0 25 25
+ 1.3008 1 2 cbr 100 ------- 1 0.0 2.0 25 25
- 1.3008 1 2 cbr 100 ------- 1 0.0 2.0 25 25
r 1.3038 1 2 cbr 100 ------- 1 0.0 2.0 24 24
+ 1.31 0 1 cbr 100 ------- 1 0.0 2.0 31 31
- 1.31 0 1 cbr 100 ------- 1 0.0 2.0 31 31
r 1.3108 0 1 cbr 100 ------- 1 0.0 2.0 26 26
+ 1.3108 1 2 cbr 100 ------- 1 0.0 2.0 26 26
- 1.3108 1 2 cbr 100 ------- 1 0.0 2.0 26 26
r 1.3138 1 2 cbr 100 ------- 1 0.0 2.0 25 25
+ 1.32 0 1 cbr 100 ------- 1 0.0 2.0 32 32
- 1.32 0 1 cbr 100 ------- 1 0.0 2.0 32 32
r 1.3208 0 1 cbr 100 ------- 1 0.0 2.0 27 27
+ 1.3208 1 2 cbr 100 ------- 1 0.0 2.0 27 27
- 1.3208 1 2 cbr 100 ------- 1 0.0 2.0 27 27
r 1.3238 1 2 cbr 100 ------- 1 0.0 2.0 26 26
+ 1.33 0 1 cbr 100 ------- 1 0.0 2.0 33 33
- 1.33 0 1 cbr 100 ------- 1 0.0 2.0 33 33
r 1.3308 0 1 cbr 100 ------- 1 0.0 2.0 28 28
+ 1.3308 1 2 cbr 100 ------- 1 0.0 2.0 28 28
- 1.3308 1 2 cbr 100 ------- 1 0.0 2.0 28 28
r 1.3338 1 2 cbr 100 ------- 1 0.0 2.0 27 27
+ 1.34 0 1 cbr 100 ------- 1 0.0 2.0 34 34
- 1.34 0 1 cbr 100 ------- 1 0.0 2.0 34 34
r 1.3408 0 1 cbr 100 ------- 1 0.0 2.0 29 29
+ 1.3408 1 2 cbr 100 ------- 1 0.0 2.0 29 29
- 1.3408 1 2 cbr 100 ------- 1 0.0 2.0 29 29
r 1.3438 1 2 cbr 100 ------- 1 0.0 2.0 28 28
+ 1.35 0 1 cbr 100 ------- 1 0.0 2.0 35 35
- 1.35 0 1 cbr 100 ------- 1 0.0 2.0 35 35
r 1.3508 0 1 cbr 100 ------- 1 0.0 2.0 30 30
+ 1.3508 1 2 cbr 100 ------- 1 0.0 2.0 30 30
- 1.3508 1 2 cbr 100 ------- 1 0.0 2.0 30 30
r 1.3538 1 2 cbr 100 ------- 1 0.0 2.0 29 29
+ 1.36 0 1 cbr 100 ------- 1 0.0 2.0 36 36
- 1.36 0 1 cbr 100 ------- 1 0.0 2.0 36 36
r 1.3608 0 1 cbr 100 ------- 1 0.0 2.0 31 31
+ 1.3608 1 2 cbr 100 ------- 1 0.0 2.0 31 31
- 1.3608 1 2 cbr 100 ------- 1 0.0 2.0 31 31
r 1.3638 1 2 cbr 100 ------- 1 0.0 2.0 30 30
+ 1.37 0 1 cbr 100 ------- 1 0.0 2.0 37 37
- 1.37 0 1 cbr 100 ------- 1 0.0 2.0 37 37
r 1.3708 0 1 cbr 100 ------- 1 0.0 2.0 32 32
+ 1.3708 1 2 cbr 100 ------- 1 0.0 2.0 32 32
- 1.3708 1 2 cbr 100 ------- 1 0.0 2.0 32 32
r 1.3738 1 2 cbr 100 ------- 1 0.0 2.0 31 31
+ 1.38 0 1 cbr 100 ------- 1 0.0 2.0 38 38
- 1.38 0 1 cbr 100 ------- 1 0.0 2.0 38 38
r 1.3808 0 1 cbr 100 ------- 1 0.0 2.0 33 33
+ 1.3808 1 2 cbr 100 ------- 1 0.0 2.0 33 33
- 1.3808 1 2 cbr 100 ------- 1 0.0 2.0 33 33
r 1.3838 1 2 cbr 100 ------- 1 0.0 2.0 32 32
+ 1.39 0 1 cbr 100 ------- 1 0.0 2.0 39 39
- 1.39 0 1 cbr 100 ------- 1 0.0 2.0 39 39
r 1.3908 0 1 cbr 100 ------- 1 0.0 2.0 34 34
+ 1.3908 1 2 cbr 100 ------- 1 0.0 2.0 34 34
- 1.3908 1 2 cbr 100 ------- 1 0.0 2.0 34 34
r 1.3938 1 2 cbr 100 ------- 1 0.0 2.0 33 33
+ 1.4 0 1 cbr 100 ------- 1 0.0 2.0 40 40
- 1.4 0 1 cbr 100 ------- 1 0.0 2.0 40 40
r 1.4008 0 1 cbr 100 ------- 1 0.0 2.0 35 35
+ 1.4008 1 2 cbr 100 ------- 1 0.0 2.0 35 35
- 1.4008 1 2 cbr 100 ------- 1 0.0 2.0 35 35
r 1.4038 1 2 cbr 100 ------- 1 0.0 2.0 34 34
+ 1.41 0 1 cbr 100 ------- 1 0.0 2.0 41 41
- 1.41 0 1 cbr 100 ------- 1 0.0 2.0 41 41
r 1.4108 0 1 cbr 100 ------- 1 0.0 2.0 36 36
+ 1.4108 1 2 cbr 100 ------- 1 0.0 2.0 36 36
- 1.4108 1 2 cbr 100 ------- 1 0.0 2.0 36 36
r 1.4138 1 2 cbr 100 ------- 1 0.0 2.0 35 35
+ 1.42 0 1 cbr 100 ------- 1 0.0 2.0 42 42
- 1.42 0 1 cbr 100 ------- 1 0.0 2.0 42 42
r 1.4208 0 1 cbr 100 ------- 1 0.0 2.0 37 37
+ 1.4208 1 2 cbr 100 ------- 1 0.0 2.0 37 37
- 1.4208 1 2 cbr 100 ------- 1 0.0 2.0 37 37
r 1.4238 1 2 cbr 100 ------- 1 0.0 2.0 36 36
+ 1.43 0 1 cbr 100 ------- 1 0.0 2.0 43 43
- 1.43 0 1 cbr 100 ------- 1 0.0 2.0 43 43
r 1.4308 0 1 cbr 100 ------- 1 0.0 2.0 38 38
+ 1.4308 1 2 cbr 100 ------- 1 0.0 2.0 38 38
- 1.4308 1 2 cbr 100 ------- 1 0.0 2.0 38 38
r 1.4338 1 2 cbr 100 ------- 1 0.0 2.0 37 37
+ 1.44 0 1 cbr 100 ------- 1 0.0 2.0 44 44
- 1.44 0 1 cbr 100 ------- 1 0.0 2.0 44 44
r 1.4408 0 1 cbr 100 ------- 1 0.0 2.0 39 39
+ 1.4408 1 2 cbr 100 ------- 1 0.0 2.0 39 39
- 1.4408 1 2 cbr 100 ------- 1 0.0 2.0 39 39
r 1.4438 1 2 cbr 100 ------- 1 0.0 2.0 38 38
+ 1.45 0 1 cbr 100 ------- 1 0.0 2.0 45 45
- 1.45 0 1 cbr 100 ------- 1 0.0 2.0 45 45
r 1.4508 0 1 cbr 100 ------- 1 0.0 2.0 40 40
+ 1.4508 1 2 cbr 100 ------- 1 0.0 2.0 40 40
- 1.4508 1 2 cbr 100 ------- 1 0.0 2.0 40 40
r 1.4538 1 2 cbr 100 ------- 1 0.0 2.0 39 39
+ 1.46 0 1 cbr 100 ------- 1 0.0 2.0 46 46
- 1.46 0 1 cbr 100 ------- 1 0.0 2.0 46 46
r 1.4608 0 1 cbr 100 ------- 1 0.0 2.0 41 41
+ 1.4608 1 2 cbr 100 ------- 1 0.0 2.0 41 41
- 1.4608 1 2 cbr 100 ------- 1 0.0 2.0 41 41
r 1.4638 1 2 cbr 100 ------- 1 0.0 2.0 40 40
+ 1.47 0 1 cbr 100 ------- 1 0.0 2.0 47 47
- 1.47 0 1 cbr 100 ------- 1 0.0 2.0 47 47
r 1.4708 0 1 cbr 100 ------- 1 0.0 2.0 42 42
+ 1.4708 1 2 cbr 100 ------- 1 0.0 2.0 42 42
- 1.4708 1 2 cbr 100 ------- 1 0.0 2.0 42 42
r 1.4738 1 2 cbr 100 ------- 1 0.0 2.0 41 41
+ 1.48 0 1 cbr 100 ------- 1 0.0 2.0 48 48
- 1.48 0 1 cbr 100 ------- 1 0.0 2.0 48 48
r 1.4808 0 1 cbr 100 ------- 1 0.0 2.0 43 43
+ 1.4808 1 2 cbr 100 ------- 1 0.0 2.0 43 43
- 1.4808 1 2 cbr 100 ------- 1 0.0 2.0 43 43
r 1.4838 1 2 cbr 100 ------- 1 0.0 2.0 42 42
+ 1.49 0 1 cbr 100 ------- 1 0.0 2.0 49 49
- 1.49 0 1 cbr 100 ------- 1 0.0 2.0 49 49
r 1.4908 0 1 cbr 100 ------- 1 0.0 2.0 44 44
+ 1.4908 1 2 cbr 100 ------- 1 0.0 2.0 44 44
- 1.4908 1 2 cbr 100 ------- 1 0.0 2.0 44 44
r 1.4938 1 2 cbr 100 ------- 1 0.0 2.0 43 43
+ 1.5 0 1 cbr 100 ------- 1 0.0 2.0 50 50
- 1.5 0 1 cbr 100 ------- 1 0.0 2.0 50 50
r 1.5008 0 1 cbr 100 ------- 1 0.0 2.0 45 45
+ 1.5008 1 2 cbr 100 ------- 1 0.0 2.0 45 45
- 1.5008 1 2 cbr 100 ------- 1 0.0 2.0 45 45
r 1.5038 1 2 cbr 100 ------- 1 0.0 2.0 44 44
+ 1.51 0 1 cbr 100 ------- 1 0.0 2.0 51 51
- 1.51 0 1 cbr 100 ------- 1 0.0 2.0 51 51
r 1.5108 0 1 cbr 100 ------- 1 0.0 2.0 46 46
+ 1.5108 1 2 cbr 100 ------- 1 0.0 2.0 46 46
- 1.5108 1 2 cbr 100 ------- 1 0.0 2.0 46 46
r 1.5138 1 2 cbr 100 ------- 1 0.0 2.0 45 45
+ 1.52 0 1 cbr 100 ------- 1 0.0 2.0 52 52
- 1.52 0 1 cbr 100 ------- 1 0.0 2.0 52 52
r 1.5208 0 1 cbr 100 ------- 1 0.0 2.0 47 47
+ 1.5208 1 2 cbr 100 ------- 1 0.0 2.0 47 47
- 1.5208 1 2 cbr 100 ------- 1 0.0 2.0 47 47
r 1.5238 1 2 cbr 100 ------- 1 0.0 2.0 46 46
+ 1.53 0 1 cbr 100 ------- 1 0.0 2.0 53 53
- 1.53 0 1 cbr 100 ------- 1 0.0 2.0 53 53
r 1.5308 0 1 cbr 100 ------- 1 0.0 2.0 48 48
+ 1.5308 1 2 cbr 100 ------- 1 0.0 2.0 48 48
- 1.5308 1 2 cbr 100 ------- 1 0.0 2.0 48 48
r 1.5338 1 2 cbr 100 ------- 1 0.0 2.0 47 47
+ 1.54 0 1 cbr 100 ------- 1 0.0 2.0 54 54
- 1.54 0 1 cbr 100 ------- 1 0.0 2.0 54 54
r 1.5408 0 1 cbr 100 ------- 1 0.0 2.0 49 49
+ 1.5408 1 2 cbr 100 ------- 1 0.0 2.0 49 49
- 1.5408 1 2 cbr 100 ------- 1 0.0 2.0 49 49
r 1.5438 1 2 cbr 100 ------- 1 0.0 2.0 48 48
+ 1.55 0 1 cbr 100 ------- 1 0.0 2.0 55 55
- 1.55 0 1 cbr 100 ------- 1 0.0 2.0 55 55
r 1.5508 0 1 cbr 100 ------- 1 0.0 2.0 50 50
+ 1.5508 1 2 cbr 100 ------- 1 0.0 2.0 50 50
- 1.5508 1 2 cbr 100 ------- 1 0.0 2.0 50 50
r 1.5538 1 2 cbr 100 ------- 1 0.0 2.0 49 49
+ 1.56 0 1 cbr 100 ------- 1 0.0 2.0 56 56
- 1.56 0 1 cbr 100 ------- 1 0.0 2.0 56 56
r 1.5608 0 1 cbr 100 ------- 1 0.0 2.0 51 51
+ 1.5608 1 2 cbr 100 ------- 1 0.0 2.0 51 51
- 1.5608 1 2 cbr 100 ------- 1 0.0 2.0 51 51
r 1.5638 1 2 cbr 100 ------- 1 0.0 2.0 50 50
+ 1.57 0 1 cbr 100 ------- 1 0.0 2.0 57 57
- 1.57 0 1 cbr 100 ------- 1 0.0 2.0 57 57
r 1.5708 0 1 cbr 100 ------- 1 0.0 2.0 52 52
+ 1.5708 1 2 cbr 100 ------- 1 0.0 2.0 52 52
- 1.5708 1 2 cbr 100 ------- 1 0.0 2.0 52 52
r 1.5738 1 2 cbr 100 ------- 1 0.0 2.0 51 51
+ 1.58 0 1 cbr 100 ------- 1 0.0 2.0 58 58
- 1.58 0 1 cbr 100 ------- 1 0.0 2.0 58 58
r 1.5808 0 1 cbr 100 ------- 1 0.0 2.0 53 53
+ 1.5808 1 2 cbr 100 ------- 1 0.0 2.0 53 53
- 1.5808 1 2 cbr 100 ------- 1 0.0 2.0 53 53
r 1.5838 1 2 cbr 100 ------- 1 0.0 2.0 52 52
+ 1.59 0 1 cbr 100 ------- 1 0.0 2.0 59 59
- 1.59 0 1 cbr 100 ------- 1 0.0 2.0 59 59
r 1.5908 0 1 cbr 100 ------- 1 0.0 2.0 54 54
+ 1.5908 1 2 cbr 100 ------- 1 0.0 2.0 54 54
- 1.5908 1 2 cbr 100 ------- 1 0.0 2.0 54 54
r 1.5938 1 2 cbr 100 ------- 1 0.0 2.0 53 53
+ 1.6 0 1 cbr 100 ------- 1 0.0 2.0 60 60
- 1.6 0 1 cbr 100 ------- 1 0.0 2.0 60 60
r 1.6008 0 1 cbr 100 ------- 1 0.0 2.0 55 55
+ 1.6008 1 2 cbr 100 ------- 1 0.0 2.0 55 55
- 1.6008 1 2 cbr 100 ------- 1 0.0 2.0 55 55
r 1.6038 1 2 cbr 100 ------- 1 0.0 2.0 54 54
+ 1.61 0 1 cbr 100 ------- 1 0.0 2.0 61 61
- 1.61 0 1 cbr 100 ------- 1 0.0 2.0 61 61
r 1.6108 0 1 cbr 100 ------- 1 0.0 2.0 56 56
+ 1.6108 1 2 cbr 100 ------- 1 0.0 2.0 56 56
- 1.6108 1 2 cbr 100 ------- 1 0.0 2.0 56 56
r 1.6138 1 2 cbr 100 ------- 1 0.0 2.0 55 55
+ 1.62 0 1 cbr 100 ------- 1 0.0 2.0 62 62
- 1.62 0 1 cbr 100 ------- 1 0.0 2.0 62 62
r 1.6208 0 1 cbr 100 ------- 1 0.0 2.0 57 57
+ 1.6208 1 2 cbr 100 ------- 1 0.0 2.0 57 57
- 1.6208 1 2 cbr 100 ------- 1 0.0 2.0 57 57
r 1.6238 1 2 cbr 100 ------- 1 0.0 2.0 56 56
+ 1.63 0 1 cbr 100 ------- 1 0.0 2.0 63 63
- 1.63 0 1 cbr 100 ------- 1 0.0 2.0 63 63
r 1.6308 0 1 cbr 100 ------- 1 0.0 2.0 58 58
+ 1.6308 1 2 cbr 100 ------- 1 0.0 2.0 58 58
- 1.6308 1 2 cbr 100 ------- 1 0.0 2.0 58 58
r 1.6338 1 2 cbr 100 ------- 1 0.0 2.0 57 57
+ 1.64 0 1 cbr 100 ------- 1 0.0 2.0 64 64
- 1.64 0 1 cbr 100 ------- 1 0.0 2.0 64 64
r 1.6408 0 1 cbr 100 ------- 1 0.0 2.0 59 59
+ 1.6408 1 2 cbr 100 ------- 1 0.0 2.0 59 59
- 1.6408 1 2 cbr 100 ------- 1 0.0 2.0 59 59
r 1.6438 1 2 cbr 100 ------- 1 0.0 2.0 58 58
+ 1.65 0 1 cbr 100 ------- 1 0.0 2.0 65 65
- 1.65 0 1 cbr 100 ------- 1 0.0 2.0 65 65
r 1.6508 0 1 cbr 100 ------- 1 0.0 2.0 60 60
+ 1.6508 1 2 cbr 100 ------- 1 0.0 2.0 60 60
- 1.6508 1 2 cbr 100 ------- 1 0.0 2.0 60 60
r 1.6538 1 2 cbr 100 ------- 1 0.0 2.0 59 59
+ 1.66 0 1 cbr 100 ------- 1 0.0 2.0 66 66
- 1.66 0 1 cbr 100 ------- 1 0.0 2.0 66 66
r 1.6608 0 1 cbr 100 ------- 1 0.0 2.0 61 61
+ 1.6608 1 2 cbr 100 ------- 1 0.0 2.0 61 61
- 1.6608 1 2 cbr 100 ------- 1 0.0 2.0 61 61
r 1.6638 1 2 cbr 100 ------- 1 0.0 2.0 60 60
+ 1.67 0 1 cbr 100 ------- 1 0.0 2.0 67 67
- 1.67 0 1 cbr 100 ------- 1 0.0 2.0 67 67
r 1.6708 0 1 cbr 100 ------- 1 0.0 2.0 62 62
+ 1.6708 1 2 cbr 100 ------- 1 0.0 2.0 62 62
- 1.6708 1 2 cbr 100 ------- 1 0.0 2.0 62 62
r 1.6738 1 2 cbr 100 ------- 1 0.0 2.0 61 61
+ 1.68 0 1 cbr 100 ------- 1 0.0 2.0 68 68
- 1.68 0 1 cbr 100 ------- 1 0.0 2.0 68 68
r 1.6808 0 1 cbr 100 ------- 1 0.0 2.0 63 63
+ 1.6808 1 2 cbr 100 ------- 1 0.0 2.0 63 63
- 1.6808 1 2 cbr 100 ------- 1 0.0 2.0 63 63
r 1.6838 1 2 cbr 100 ------- 1 0.0 2.0 62 62
+ 1.69 0 1 cbr 100 ------- 1 0.0 2.0 69 69
- 1.69 0 1 cbr 100 ------- 1 0.0 2.0 69 69
r 1.6908 0 1 cbr 100 ------- 1 0.0 2.0 64 64
+ 1.6908 1 2 cbr 100 ------- 1 0.0 2.0 64 64
- 1.6908 1 2 cbr 100 ------- 1 0.0 2.0 64 64
r 1.6938 1 2 cbr 100 ------- 1 0.0 2.0 63 63
+ 1.7 0 1 cbr 100 ------- 1 0.0 2.0 70 70
- 1.7 0 1 cbr 100 ------- 1 0.0 2.0 70 70
r 1.7008 0 1 cbr 100 ------- 1 0.0 2.0 65 65
+ 1.7008 1 2 cbr 100 ------- 1 0.0 2.0 65 65
- 1.7008 1 2 cbr 100 ------- 1 0.0 2.0 65 65
r 1.7038 1 2 cbr 100 ------- 1 0.0 2.0 64 64
+ 1.71 0 1 cbr 100 ------- 1 0.0 2.0 71 71
- 1.71 0 1 cbr 100 ------- 1 0.0 2.0 71 71
r 1.7108 0 1 cbr 100 ------- 1 0.0 2.0 66 66
+ 1.7108 1 2 cbr 100 ------- 1 0.0 2.0 66 66
- 1.7108 1 2 cbr 100 ------- 1 0.0 2.0 66 66
r 1.7138 1 2 cbr 100 ------- 1 0.0 2.0 65 65
+ 1.72 0 1 cbr 100 ------- 1 0.0 2.0 72 72
- 1.72 0 1 cbr 100 ------- 1 0.0 2.0 72 72
r 1.7208 0 1 cbr 100 ------- 1 0.0 2.0 67 67
+ 1.7208 1 2 cbr 100 ------- 1 0.0 2.0 67 67
- 1.7208 1 2 cbr 100 ------- 1 0.0 2.0 67 67
r 1.7238 1 2 cbr 100 ------- 1 0.0 2.0 66 66
+ 1.73 0 1 cbr 100 ------- 1 0.0 2.0 73 73
- 1.73 0 1 cbr 100 ------- 1 0.0 2.0 73 73
r 1.7308 0 1 cbr 100 ------- 1 0.0 2.0 68 68
+ 1.7308 1 2 cbr 100 ------- 1 0.0 2.0 68 68
- 1.7308 1 2 cbr 100 ------- 1 0.0 2.0 68 68
r 1.7338 1 2 cbr 100 ------- 1 0.0 2.0 67 67
+ 1.74 0 1 cbr 100 ------- 1 0.0 2.0 74 74
- 1.74 0 1 cbr 100 ------- 1 0.0 2.0 74 74
r 1.7408 0 1 cbr 100 ------- 1 0.0 2.0 69 69
+ 1.7408 1 2 cbr 100 ------- 1 0.0 2.0 69 69
- 1.7408 1 2 cbr 100 ------- 1 0.0 2.0 69 69
r 1.7438 1 2 cbr 100 ------- 1 0.0 2.0 68 68
+ 1.75 0 1 cbr 100 ------- 1 0.0 2.0 75 75
- 1.75 0 1 cbr 100 ------- 1 0.0 2.0 75 75
r 1.7508 0 1 cbr 100 ------- 1 0.0 2.0 70 70
+ 1.7508 1 2 cbr 100 ------- 1 0.0 2.0 70 70
- 1.7508 1 2 cbr 100 ------- 1 0.0 2.0 70 70
r 1.7538 1 2 cbr 100 ------- 1 0.0 2.0 69 69
+ 1.76 0 1 cbr 100 ------- 1 0.0 2.0 76 76
- 1.76 0 1 cbr 100 ------- 1 0.0 2.0 76 76
r 1.7608 0 1 cbr 100 ------- 1 0.0 2.0 71 71
+ 1.7608 1 2 cbr 100 ------- 1 0.0 2.0 71 71
- 1.7608 1 2 cbr 100 ------- 1 0.0 2.0 71 71
r 1.7638 1 2 cbr 100 ------- 1 0.0 2.0 70 70
+ 1.77 0 1 cbr 100 ------- 1 0.0 2.0 77 77
- 1.77 0 1 cbr 100 ------- 1 0.0 2.0 77 77
r 1.7708 0 1 cbr 100 ------- 1 0.0 2.0 72 72
+ 1.7708 1 2 cbr 100 ------- 1 0.0 2.0 72 72
- 1.7708 1 2 cbr 100 ------- 1 0.0 2.0 72 72
r 1.7738 1 2 cbr 100 ------- 1 0.0 2.0 71 71
+ 1.78 0 1 cbr 100 ------- 1 0.0 2.0 78 78
- 1.78 0 1 cbr 100 ------- 1 0.0 2.0 78 78
r 1.7808 0 1 cbr 100 ------- 1 0.0 2.0 73 73
+ 1.7808 1 2 cbr 100 ------- 1 0.0 2.0 73 73
- 1.7808 1 2 cbr 100 ------- 1 0.0 2.0 73 73
r 1.7838 1 2 cbr 100 ------- 1 0.0 2.0 72 72
+ 1.79 0 1 cbr 100 ------- 1 0.0 2.0 79 79
- 1.79 0 1 cbr 100 ------- 1 0.0 2.0 79 79
r 1.7908 0 1 cbr 100 ------- 1 0.0 2.0 74 74
+ 1.7908 1 2 cbr 100 ------- 1 0.0 2.0 74 74
- 1.7908 1 2 cbr 100 ------- 1 0.0 2.0 74 74
r 1.7938 1 2 cbr 100 ------- 1 0.0 2.0 73 73
+ 1.8 0 1 cbr 100 ------- 1 0.0 2.0 80 80
- 1.8 0 1 cbr 100 ------- 1 0.0 2.0 80 80
r 1.8008 0 1 cbr 100 ------- 1 0.0 2.0 75 75
+ 1.8008 1 2 cbr 100 ------- 1 0.0 2.0 75 75
- 1.8008 1 2 cbr 100 ------- 1 0.0 2.0 75 75
r 1.8038 1 2 cbr 100 ------- 1 0.0 2.0 74 74
+ 1.81 0 1 cbr 100 ------- 1 0.0 2.0 81 81
- 1.81 0 1 cbr 100 ------- 1 0.0 2.0 81 81
r 1.8108 0 1 cbr 100 ------- 1 0.0 2.0 76 76
+ 1.8108 1 2 cbr 100 ------- 1 0.0 2.0 76 76
- 1.8108 1 2 cbr 100 ------- 1 0.0 2.0 76 76
r 1.8138 1 2 cbr 100 ------- 1 0.0 2.0 75 75
+ 1.82 0 1 cbr 100 ------- 1 0.0 2.0 82 82
- 1.82 0 1 cbr 100 ------- 1 0.0 2.0 82 82
r 1.8208 0 1 cbr 100 ------- 1 0.0 2.0 77 77
+ 1.8208 1 2 cbr 100 ------- 1 0.0 2.0 77 77
- 1.8208 1 2 cbr 100 ------- 1 0.0 2.0 77 77
r 1.8238 1 2 cbr 100 ------- 1 0.0 2.0 76 76
+ 1.83 0 1 cbr 100 ------- 1 0.0 2.0 83 83
- 1.83 0 1 cbr 100 ------- 1 0.0 2.0 83 83
r 1.8308 0 1 cbr 100 ------- 1 0.0 2.0 78 78
+ 1.8308 1 2 cbr 100 ------- 1 0.0 2.0 78 78
- 1.8308 1 2 cbr 100 ------- 1 0.0 2.0 78 78
r 1.8338 1 2 cbr 100 ------- 1 0.0 2.0 77 77
+ 1.84 0 1 cbr 100 ------- 1 0.0 2.0 84 84
- 1.84 0 1 cbr 100 ------- 1 0.0 2.0 84 84
r 1.8408 0 1 cbr 100 ------- 1 0.0 2.0 79 79
+ 1.8408 1 2 cbr 100 ------- 1 0.0 2.0 79 79
- 1.8408 1 2 cbr 100 ------- 1 0.0 2.0 79 79
r 1.8438 1 2 cbr 100 ------- 1 0.0 2.0 78 78
+ 1.85 0 1 cbr 100 ------- 1 0.0 2.0 85 85
- 1.85 0 1 cbr 100 ------- 1 0.0 2.0 85 85
r 1.8508 0 1 cbr 100 ------- 1 0.0 2.0 80 80
+ 1.8508 1 2 cbr 100 ------- 1 0.0 2.0 80 80
- 1.8508 1 2 cbr 100 ------- 1 0.0 2.0 80 80
r 1.8538 1 2 cbr 100 ------- 1 0.0 2.0 79 79
+ 1.86 0 1 cbr 100 ------- 1 0.0 2.0 86 86
- 1.86 0 1 cbr 100 ------- 1 0.0 2.0 86 86
r 1.8608 0 1 cbr 100 ------- 1 0.0 2.0 81 81
+ 1.8608 1 2 cbr 100 ------- 1 0.0 2.0 81 81
- 1.8608 1 2 cbr 100 ------- 1 0.0 2.0 81 81
r 1.8638 1 2 cbr 100 ------- 1 0.0 2.0 80 80
+ 1.87 0 1 cbr 100 ------- 1 0.0 2.0 87 87
- 1.87 0 1 cbr 100 ------- 1 0.0 2.0 87 87
r 1.8708 0 1 cbr 100 ------- 1 0.0 2.0 82 82
+ 1.8708 1 2 cbr 100 ------- 1 0.0 2.0 82 82
- 1.8708 1 2 cbr 100 ------- 1 0.0 2.0 82 82
r 1.8738 1 2 cbr 100 ------- 1 0.0 2.0 81 81
+ 1.88 0 1 cbr 100 ------- 1 0.0 2.0 88 88
- 1.88 0 1 cbr 100 ------- 1 0.0 2.0 88 88
r 1.8808 0 1 cbr 100 ------- 1 0.0 2.0 83 83
+ 1.8808 1 2 cbr 100 ------- 1 0.0 2.0 83 83
- 1.8808 1 2 cbr 100 ------- 1 0.0 2.0 83 83
r 1.8838 1 2 cbr 100 ------- 1 0.0 2.0 82 82
+ 1.89 0 1 cbr 100 ------- 1 0.0 2.0 89 89
- 1.89 0 1 cbr 100 ------- 1 0.0 2.0 89 89
r 1.8908 0 1 cbr 100 ------- 1 0.0 2.0 84 84
+ 1.8908 1 2 cbr 100 ------- 1 0.0 2.0 84 84
- 1.8908 1 2 cbr 100 ------- 1 0.0 2.0 84 84
r 1.8938 1 2 cbr 100 ------- 1 0.0 2.0 83 83
+ 1.9 0 1 cbr 100 ------- 1 0.0 2.0 90 90
- 1.9 0 1 cbr 100 ------- 1 0.0 2.0 90 90
r 1.9008 0 1 cbr 100 ------- 1 0.0 2.0 85 85
+ 1.9008 1 2 cbr 100 ------- 1 0.0 2.0 85 85
- 1.9008 1 2 cbr 100 ------- 1 0.0 2.0 85 85
r 1.9038 1 2 cbr 100 ------- 1 0.0 2.0 84 84
+ 1.91 0 1 cbr 100 ------- 1 0.0 2.0 91 91
- 1.91 0 1 cbr 100 ------- 1 0.0 2.0 91 91
r 1.9108 0 1 cbr 100 ------- 1 0.0 2.0 86 86
+ 1.9108 1 2 cbr 100 ------- 1 0.0 2.0 86 86
- 1.9108 1 2 cbr 100 ------- 1 0.0 2.0 86 86
r 1.9138 1 2 cbr 100 ------- 1 0.0 2.0 85 85
+ 1.92 0 1 cbr 100 ------- 1 0.0 2.0 92 92
- 1.92 0 1 cbr 100 ------- 1 0.0 2.0 92 92
r 1.9208 0 1 cbr 100 ------- 1 0.0 2.0 87 87
+ 1.9208 1 2 cbr 100 ------- 1 0.0 2.0 87 87
- 1.9208 1 2 cbr 100 ------- 1 0.0 2.0 87 87
r 1.9238 1 2 cbr 100 ------- 1 0.0 2.0 86 86
+ 1.93 0 1 cbr 100 ------- 1 0.0 2.0 93 93
- 1.93 0 1 cbr 100 ------- 1 0.0 2.0 93 93
r 1.9308 0 1 cbr 100 ------- 1 0.0 2.0 88 88
+ 1.9308 1 2 cbr 100 ------- 1 0.0 2.0 88 88
- 1.9308 1 2 cbr 100 ------- 1 0.0 2.0 88 88
r 1.9338 1 2 cbr 100 ------- 1 0.0 2.0 87 87
+ 1.94 0 1 cbr 100 ------- 1 0.0 2.0 94 94
- 1.94 0 1 cbr 100 ------- 1 0.0 2.0 94 94
r 1.9408 0 1 cbr 100 ------- 1 0.0 2.0 89 89
+ 1.9408 1 2 cbr 100 ------- 1 0.0 2.0 89 89
- 1.9408 1 2 cbr 100 ------- 1 0.0 2.0 89 89
r 1.9438 1 2 cbr 100 ------- 1 0.0 2.0 88 88
+ 1.95 0 1 cbr 100 ------- 1 0.0 2.0 95 95
- 1.95 0 1 cbr 100 ------- 1 0.0 2.0 95 95
r 1.9508 0 1 cbr 100 ------- 1 0.0 2.0 90 90
+ 1.9508 1 2 cbr 100 ------- 1 0.0 2.0 90 90
- 1.9508 1 2 cbr 100 ------- 1 0.0 2.0 90 90
r 1.9538 1 2 cbr 100 ------- 1 0.0 2.0 89 89
+ 1.96 0 1 cbr 100 ------- 1 0.0 2.0 96 96
- 1.96 0 1 cbr 100 ------- 1 0.0 2.0 96 96
r 1.9608 0 1 cbr 100 ------- 1 0.0 2.0 91 91
+ 1.9608 1 2 cbr 100 ------- 1 0.0 2.0 91 91
- 1.9608 1 2 cbr 100 ------- 1 0.0 2.0 91 91
r 1.9638 1 2 cbr 100 ------- 1 0.0 2.0 90 90
+ 1.97 0 1 cbr 100 ------- 1 0.0 2.0 97 97
- 1.97 0 1 cbr 100 ------- 1 0.0 2.0 97 97
r 1.9708 0 1 cbr 100 ------- 1 0.0 2.0 92 92
+ 1.9708 1 2 cbr 100 ------- 1 0.0 2.0 92 92
- 1.9708 1 2 cbr 100 ------- 1 0.0 2.0 92 92
r 1.9738 1 2 cbr 100 ------- 1 0.0 2.0 91 91
+ 1.98 0 1 cbr 100 ------- 1 0.0 2.0 98 98
- 1.98 0 1 cbr 100 ------- 1 0.0 2.0 98 98
r 1.9808 0 1 cbr 100 ------- 1 0.0 2.0 93 93
+ 1.9808 1 2 cbr 100 ------- 1 0.0 2.0 93 93
- 1.9808 1 2 cbr 100 ------- 1 0.0 2.0 93 93
r 1.9838 1 2 cbr 100 ------- 1 0.0 2.0 92 92
+ 1.99 0 1 cbr 100 ------- 1 0.0 2.0 99 99
- 1.99 0 1 cbr 100 ------- 1 0.0 2.0 99 99
r 1.9908 0 1 cbr 100 ------- 1 0.0 2.0 94 94
+ 1.9908 1 2 cbr 100 ------- 1 0.0 2.0 94 94
- 1.9908 1 2 cbr 100 ------- 1 0.0 2.0 94 94
r 1.9938 1 2 cbr 100 ------- 1 0.0 2.0 93 93
+ 2 0 1 cbr 100 ------- 1 0.0 2.0 100 100
- 2 0 1 cbr 100 ------- 1 0.0 2.0 100 100
r 2.0008 0 1 cbr 100 ------- 1 0.0 2.0 95 95
+ 2.0008 1 2 cbr 100 ------- 1 0.0 2.0 95 95
- 2.0008 1 2 cbr 100 ------- 1 0.0 2.0 95 95
r 2.0038 1 2 cbr 100 ------- 1 0.0 2.0 94 94
+ 2.01 0 1 cbr 100 ------- 1 0.0 2.0 101 101
- 2.01 0 1 cbr 100 ------- 1 0.0 2.0 101 101
r 2.0108 0 1 cbr 100 ------- 1 0.0 2.0 96 96
+ 2.0108 1 2 cbr 100 ------- 1 0.0 2.0 96 96
- 2.0108 1 2 cbr 100 ------- 1 0.0 2.0 96 96
r 2.0138 1 2 cbr 100 ------- 1 0.0 2.0 95 95
+ 2.02 0 1 cbr 100 ------- 1 0.0 2.0 102 102
- 2.02 0 1 cbr 100 ------- 1 0.0 2.0 102 102
r 2.0208 0 1 cbr 100 ------- 1 0.0 2.0 97 97
+ 2.0208 1 2 cbr 100 ------- 1 0.0 2.0 97 97
- 2.0208 1 2 cbr 100 ------- 1 0.0 2.0 97 97
r 2.0238 1 2 cbr 100 ------- 1 0.0 2.0 96 96
+ 2.03 0 1 cbr 100 ------- 1 0.0 2.0 103 103
- 2.03 0 1 cbr 100 ------- 1 0.0 2.0 103 103
r 2.0308 0 1 cbr 100 ------- 1 0.0 2.0 98 98
+ 2.0308 1 2 cbr 100 ------- 1 0.0 2.0 98 98
- 2.0308 1 2 cbr 100 ------- 1 0.0 2.0 98 98
r 2.0338 1 2 cbr 100 ------- 1 0.0 2.0 97 97
+ 2.04 0 1 cbr 100 ------- 1 0.0 2.0 104 104
- 2.04 0 1 cbr 100 ------- 1 0.0 2.0 104 104
r 2.0408 0 1 cbr 100 ------- 1 0.0 2.0 99 99
+ 2.0408 1 2 cbr 100 ------- 1 0.0 2.0 99 99
- 2.0408 1 2 cbr 100 ------- 1 0.0 2.0 99 99
r 2.0438 1 2 cbr 100 ------- 1 0.0 2.0 98 98
+ 2.05 0 1 cbr 100 ------- 1 0.0 2.0 105 105
- 2.05 0 1 cbr 100 ------- 1 0.0 2.0 105 105
r 2.0508 0 1 cbr 100 ------- 1 0.0 2.0 100 100
+ 2.0508 1 2 cbr 100 ------- 1 0.0 2.0 100 100
- 2.0508 1 2 cbr 100 ------- 1 0.0 2.0 100 100
r 2.0538 1 2 cbr 100 ------- 1 0.0 2.0 99 99
+ 2.06 0 1 cbr 100 ------- 1 0.0 2.0 106 106
- 2.06 0 1 cbr 100 ------- 1 0.0 2.0 106 106
r 2.0608 0 1 cbr 100 ------- 1 0.0 2.0 101 101
+ 2.0608 1 2 cbr 100 ------- 1 0.0 2.0 101 101
- 2.0608 1 2 cbr 100 ------- 1 0.0 2.0 101 101
r 2.0638 1 2 cbr 100 ------- 1 0.0 2.0 100 100
+ 2.07 0 1 cbr 100 ------- 1 0.0 2.0 107 107
- 2.07 0 1 cbr 100 ------- 1 0.0 2.0 107 107
r 2.0708 0 1 cbr 100 ------- 1 0.0 2.0 102 102
+ 2.0708 1 2 cbr 100 ------- 1 0.0 2.0 102 102
- 2.0708 1 2 cbr 100 ------- 1 0.0 2.0 102 102
r 2.0738 1 2 cbr 100 ------- 1 0.0 2.0 101 101
+ 2.08 0 1 cbr 100 ------- 1 0.0 2.0 108 108
- 2.08 0 1 cbr 100 ------- 1 0.0 2.0 108 108
r 2.0808 0 1 cbr 100 ------- 1 0.0 2.0 103 103
+ 2.0808 1 2 cbr 100 ------- 1 0.0 2.0 103 103
- 2.0808 1 2 cbr 100 ------- 1 0.0 2.0 103 103
r 2.0838 1 2 cbr 100 ------- 1 0.0 2.0 102 102
+ 2.09 0 1 cbr 100 ------- 1 0.0 2.0 109 109
- 2.09 0 1 cbr 100 ------- 1 0.0 2.0 109 109
r 2.0908 0 1 cbr 100 ------- 1 0.0 2.0 104 104
+ 2.0908 1 2 cbr 100 ------- 1 0.0 2.0 104 104
- 2.0908 1 2 cbr 100 ------- 1 0.0 2.0 104 104
r 2.0938 1 2 cbr 100 ------- 1 0.0 2.0 103 103
+ 2.1 0 1 cbr 100 ------- 1 0.0 2.0 110 110
- 2.1 0 1 cbr 100 ------- 1 0.0 2.0 110 110
r 2.1008 0 1 cbr 100 ------- 1 0.0 2.0 105 105
+ 2.1008 1 2 cbr 100 ------- 1 0.0 2.0 105 105
- 2.1008 1 2 cbr 100 ------- 1 0.0 2.0 105 105
r 2.1038 1 2 cbr 100 ------- 1 0.0 2.0 104 104
+ 2.11 0 1 cbr 100 ------- 1 0.0 2.0 111 111
- 2.11 0 1 cbr 100 ------- 1 0.0 2.0 111 111
r 2.1108 0 1 cbr 100 ------- 1 0.0 2.0 106 106
+ 2.1108 1 2 cbr 100 ------- 1 0.0 2.0 106 106
- 2.1108 1 2 cbr 100 ------- 1 0.0 2.0 106 106
r 2.1138 1 2 cbr 100 ------- 1 0.0 2.0 105 105
+ 2.12 0 1 cbr 100 ------- 1 0.0 2.0 112 112
- 2.12 0 1 cbr 100 ------- 1 0.0 2.0 112 112
r 2.1208 0 1 cbr 100 ------- 1 0.0 2.0 107 107
+ 2.1208 1 2 cbr 100 ------- 1 0.0 2.0 107 107
- 2.1208 1 2 cbr 100 ------- 1 0.0 2.0 107 107
r 2.1238 1 2 cbr 100 ------- 1 0.0 2.0 106 106
+ 2.13 0 1 cbr 100 ------- 1 0.0 2.0 113 113
- 2.13 0 1 cbr 100 ------- 1 0.0 2.0 113 113
r 2.1308 0 1 cbr 100 ------- 1 0.0 2.0 108 108
+ 2.1308 1 2 cbr 100 ------- 1 0.0 2.0 108 108
- 2.1308 1 2 cbr 100 ------- 1 0.0 2.0 108 108
r 2.1338 1 2 cbr 100 ------- 1 0.0 2.0 107 107
+ 2.14 0 1 cbr 100 ------- 1 0.0 2.0 114 114
- 2.14 0 1 cbr 100 ------- 1 0.0 2.0 114 114
r 2.1408 0 1 cbr 100 ------- 1 0.0 2.0 109 109
+ 2.1408 1 2 cbr 100 ------- 1 0.0 2.0 109 109
- 2.1408 1 2 cbr 100 ------- 1 0.0 2.0 109 109
r 2.1438 1 2 cbr 100 ------- 1 0.0 2.0 108 108
+ 2.15 0 1 cbr 100 ------- 1 0.0 2.0 115 115
- 2.15 0 1 cbr 100 ------- 1 0.0 2.0 115 115
r 2.1508 0 1 cbr 100 ------- 1 0.0 2.0 110 110
+ 2.1508 1 2 cbr 100 ------- 1 0.0 2.0 110 110
- 2.1508 1 2 cbr 100 ------- 1 0.0 2.0 110 110
r 2.1538 1 2 cbr 100 ------- 1 0.0 2.0 109 109
+ 2.16 0 1 cbr 100 ------- 1 0.0 2.0 116 116
- 2.16 0 1 cbr 100 ------- 1 0.0 2.0 116 116