+ 1 0 1 cbr 100 ------- 1 0.0 2.0 0 0
- 1 0 1 cbr 100 ------- 1 0.0 2.0 0 0
+ 1.02 0 1 cbr 100 ------- 1 0.0 2.0 1 1
- 1.02 0 1 cbr 100 ------- 1 0.0 2.0 1 1
+ 1.04 0 1 cbr 100 ------- 1 0.0 2.0 2 2
- 1.04 0 1 cbr 100 ------- 1 0.0 2.0 2 2
r 1.0508 0 1 cbr 100 ------- 1 0.0 2.0 0 0
+ 1.0508 1 2 cbr 100 ------- 1 0.0 2.0 0 0
- 1.0508 1 2 cbr 100 ------- 1 0.0 2.0 0 0
+ 1.06 0 1 cbr 100 ------- 1 0.0 2.0 3 3
- 1.06 0 1 cbr 100 ------- 1 0.0 2.0 3 3
r 1.0638 1 2 cbr 100 ------- 1 0.0 2.0 0 0
r 1.0708 0 1 cbr 100 ------- 1 0.0 2.0 1 1
+ 1.0708 1 2 cbr 100 ------- 1 0.0 2.0 1 1
- 1.0708 1 2 cbr 100 ------- 1 0.0 2.0 1 1
+ 1.08 0 1 cbr 100 ------- 1 0.0 2.0 4 4
- 1.08 0 1 cbr 100 ------- 1 0.0 2.0 4 4
r 1.0838 1 2 cbr 100 ------- 1 0.0 2.0 1 1
r 1.0908 0 1 cbr 100 ------- 1 0.0 2.0 2 2
+ 1.0908 1 2 cbr 100 ------- 1 0.0 2.0 2 2
- 1.0908 1 2 cbr 100 ------- 1 0.0 2.0 2 2
+ 1.1 0 1 cbr 100 ------- 1 0.0 2.0 5 5
- 1.1 0 1 cbr 100 ------- 1 0.0 2.0 5 5
r 1.1038 1 2 cbr 100 ------- 1 0.0 2.0 2 2
r 1.1108 0 1 cbr 100 ------- 1 0.0 2.0 3 3
+ 1.1108 1 2 cbr 100 ------- 1 0.0 2.0 3 3
- 1.1108 1 2 cbr 100 ------- 1 0.0 2.0 3 3
+ 1.12 0 1 cbr 100 ------- 1 0.0 2.0 6 6
- 1.12 0 1 cbr 100 ------- 1 0.0 2.0 6 6
r 1.1238 1 2 cbr 100 ------- 1 0.0 2.0 3 3
r 1.1308 0 1 cbr 100 ------- 1 0.0 2.0 4 4
+ 1.1308 1 2 cbr 100 ------- 1 0.0 2.0 4 4
- 1.1308 1 2 cbr 100 ------- 1 0.0 2.0 4 4
+ 1.14 0 1 cbr 100 ------- 1 0.0 2.0 7 7
- 1.14 0 1 cbr 100 ------- 1 0.0 2.0 7 7
r 1.1438 1 2 cbr 100 ------- 1 0.0 2.0 4 4
r 1.1508 0 1 cbr 100 ------- 1 0.0 2.0 5 5
+ 1.1508 1 2 cbr 100 ------- 1 0.0 2.0 5 5
- 1.1508 1 2 cbr 100 ------- 1 0.0 2.0 5 5
+ 1.16 0 1 cbr 100 ------- 1 0.0 2.0 8 8
- 1.16 0 1 cbr 100 ------- 1 0.0 2.0 8 8
r 1.1638 1 2 cbr 100 ------- 1 0.0 2.0 5 5
r 1.1708 0 1 cbr 100 ------- 1 0.0 2.0 6 6
+ 1.1708 1 2 cbr 100 ------- 1 0.0 2.0 6 6
- 1.1708 1 2 cbr 100 ------- 1 0.0 2.0 6 6
+ 1.18 0 1 cbr 100 ------- 1 0.0 2.0 9 9
- 1.18 0 1 cbr 100 ------- 1 0.0 2.0 9 9
r 1.1838 1 2 cbr 100 ------- 1 0.0 2.0 6 6
r 1.1908 0 1 cbr 100 ------- 1 0.0 2.0 7 7
+ 1.1908 1 2 cbr 100 ------- 1 0.0 2.0 7 7
- 1.1908 1 2 cbr 100 ------- 1 0.0 2.0 7 7
+ 1.2 0 1 cbr 100 ------- 1 0.0 2.0 10 10
- 1.2 0 1 cbr 100 ------- 1 0.0 2.0 10 10
r 1.2038 1 2 cbr 100 ------- 1 0.0 2.0 7 7
r 1.2108 0 1 cbr 100 ------- 1 0.0 2.0 8 8
+ 1.2108 1 2 cbr 100 ------- 1 0.0 2.0 8 8
- 1.2108 1 2 cbr 100 ------- 1 0.0 2.0 8 8
+ 1.22 0 1 cbr 100 ------- 1 0.0 2.0 11 11
- 1.22 0 1 cbr 100 ------- 1 0.0 2.0 11 11
r 1.2238 1 2 cbr 100 ------- 1 0.0 2.0 8 8
r 1.2308 0 1 cbr 100 ------- 1 0.0 2.0 9 9
+ 1.2308 1 2 cbr 100 ------- 1 0.0 2.0 9 9
- 1.2308 1 2 cbr 100 ------- 1 0.0 2.0 9 9
+ 1.24 0 1 cbr 100 ------- 1 0.0 2.0 12 12
- 1.24 0 1 cbr 100 ------- 1 0.0 2.0 12 12
r 1.2438 1 2 cbr 100 ------- 1 0.0 2.0 9 9
r 1.2508 0 1 cbr 100 ------- 1 0.0 2.0 10 10
+ 1.2508 1 2 cbr 100 ------- 1 0.0 2.0 10 10
- 1.2508 1 2 cbr 100 ------- 1 0.0 2.0 10 10
+ 1.26 0 1 cbr 100 ------- 1 0.0 2.0 13 13
- 1.26 0 1 cbr 100 ------- 1 0.0 2.0 13 13
r 1.2638 1 2 cbr 100 ------- 1 0.0 2.0 10 10
r 1.2708 0 1 cbr 100 ------- 1 0.0 2.0 11 11
+ 1.2708 1 2 cbr 100 ------- 1 0.0 2.0 11 11
- 1.2708 1 2 cbr 100 ------- 1 0.0 2.0 11 11
+ 1.28 0 1 cbr 100 ------- 1 0.0 2.0 14 14
- 1.28 0 1 cbr 100 ------- 1 0.0 2.0 14 14
r 1.2838 1 2 cbr 100 ------- 1 0.0 2.0 11 11
r 1.2908 0 1 cbr 100 ------- 1 0.0 2.0 12 12
+ 1.2908 1 2 cbr 100 ------- 1 0.0 2.0 12 12
- 1.2908 1 2 cbr 100 ------- 1 0.0 2.0 12 12
+ 1.3 0 1 cbr 100 ------- 1 0.0 2.0 15 15
- 1.3 0 1 cbr 100 ------- 1 0.0 2.0 15 15
r 1.3038 1 2 cbr 100 ------- 1 0.0 2.0 12 12
r 1.3108 0 1 cbr 100 ------- 1 0.0 2.0 13 13
+ 1.3108 1 2 cbr 100 ------- 1 0.0 2.0 13 13
- 1.3108 1 2 cbr 100 ------- 1 0.0 2.0 13 13
+ 1.32 0 1 cbr 100 ------- 1 0.0 2.0 16 16
- 1.32 0 1 cbr 100 ------- 1 0.0 2.0 16 16
r 1.3238 1 2 cbr 100 ------- 1 0.0 2.0 13 13
r 1.3308 0 1 cbr 100 ------- 1 0.0 2.0 14 14
+ 1.3308 1 2 cbr 100 ------- 1 0.0 2.0 14 14
- 1.3308 1 2 cbr 100 ------- 1 0.0 2.0 14 14
+ 1.34 0 1 cbr 100 ------- 1 0.0 2.0 17 17
- 1.34 0 1 cbr 100 ------- 1 0.0 2.0 17 17
r 1.3438 1 2 cbr 100 ------- 1 0.0 2.0 14 14
r 1.3508 0 1 cbr 100 ------- 1 0.0 2.0 15 15
+ 1.3508 1 2 cbr 100 ------- 1 0.0 2.0 15 15
- 1.3508 1 2 cbr 100 ------- 1 0.0 2.0 15 15
+ 1.36 0 1 cbr 100 ------- 1 0.0 2.0 18 18
- 1.36 0 1 cbr 100 ------- 1 0.0 2.0 18 18
r 1.3638 1 2 cbr 100 ------- 1 0.0 2.0 15 15
r 1.3708 0 1 cbr 100 ------- 1 0.0 2.0 16 16
+ 1.3708 1 2 cbr 100 ------- 1 0.0 2.0 16 16
- 1.3708 1 2 cbr 100 ------- 1 0.0 2.0 16 16
+ 1.38 0 1 cbr 100 ------- 1 0.0 2.0 19 19
- 1.38 0 1 cbr 100 ------- 1 0.0 2.0 19 19
r 1.3838 1 2 cbr 100 ------- 1 0.0 2.0 16 16
r 1.3908 0 1 cbr 100 ------- 1 0.0 2.0 17 17
+ 1.3908 1 2 cbr 100 ------- 1 0.0 2.0 17 17
- 1.3908 1 2 cbr 100 ------- 1 0.0 2.0 17 17
+ 1.4 0 1 cbr 100 ------- 1 0.0 2.0 20 20
- 1.4 0 1 cbr 100 ------- 1 0.0 2.0 20 20
r 1.4038 1 2 cbr 100 ------- 1 0.0 2.0 17 17
r 1.4108 0 1 cbr 100 ------- 1 0.0 2.0 18 18
+ 1.4108 1 2 cbr 100 ------- 1 0.0 2.0 18 18
- 1.4108 1 2 cbr 100 ------- 1 0.0 2.0 18 18
+ 1.42 0 1 cbr 100 ------- 1 0.0 2.0 21 21
- 1.42 0 1 cbr 100 ------- 1 0.0 2.0 21 21
r 1.4238 1 2 cbr 100 ------- 1 0.0 2.0 18 18
r 1.4308 0 1 cbr 100 ------- 1 0.0 2.0 19 19
+ 1.4308 1 2 cbr 100 ------- 1 0.0 2.0 19 19
- 1.4308 1 2 cbr 100 ------- 1 0.0 2.0 19 19
+ 1.44 0 1 cbr 100 ------- 1 0.0 2.0 22 22
- 1.44 0 1 cbr 100 ------- 1 0.0 2.0 22 22
r 1.4438 1 2 cbr 100 ------- 1 0.0 2.0 19 19
r 1.4508 0 1 cbr 100 ------- 1 0.0 2.0 20 20
+ 1.4508 1 2 cbr 100 ------- 1 0.0 2.0 20 20
- 1.4508 1 2 cbr 100 ------- 1 0.0 2.0 20 20
+ 1.46 0 1 cbr 100 ------- 1 0.0 2.0 23 23
- 1.46 0 1 cbr 100 ------- 1 0.0 2.0 23 23
r 1.4638 1 2 cbr 100 ------- 1 0.0 2.0 20 20
r 1.4708 0 1 cbr 100 ------- 1 0.0 2.0 21 21
+ 1.4708 1 2 cbr 100 ------- 1 0.0 2.0 21 21
- 1.4708 1 2 cbr 100 ------- 1 0.0 2.0 21 21
+ 1.48 0 1 cbr 100 ------- 1 0.0 2.0 24 24
- 1.48 0 1 cbr 100 ------- 1 0.0 2.0 24 24
r 1.4838 1 2 cbr 100 ------- 1 0.0 2.0 21 21
r 1.4908 0 1 cbr 100 ------- 1 0.0 2.0 22 22
+ 1.4908 1 2 cbr 100 ------- 1 0.0 2.0 22 22
- 1.4908 1 2 cbr 100 ------- 1 0.0 2.0 22 22
+ 1.5 0 1 cbr 100 ------- 1 0.0 2.0 25 25
- 1.5 0 1 cbr 100 ------- 1 0.0 2.0 25 25
r 1.5038 1 2 cbr 100 ------- 1 0.0 2.0 22 22
r 1.5108 0 1 cbr 100 ------- 1 0.0 2.0 23 23
+ 1.5108 1 2 cbr 100 ------- 1 0.0 2.0 23 23
- 1.5108 1 2 cbr 100 ------- 1 0.0 2.0 23 23
+ 1.52 0 1 cbr 100 ------- 1 0.0 2.0 26 26
- 1.52 0 1 cbr 100 ------- 1 0.0 2.0 26 26
r 1.5238 1 2 cbr 100 ------- 1 0.0 2.0 23 23
r 1.5308 0 1 cbr 100 ------- 1 0.0 2.0 24 24
+ 1.5308 1 2 cbr 100 ------- 1 0.0 2.0 24 24
- 1.5308 1 2 cbr 100 ------- 1 0.0 2.0 24 24
+ 1.54 0 1 cbr 100 ------- 1 0.0 2.0 27 27
- 1.54 0 1 cbr 100 ------- 1 0.0 2.0 27 27
r 1.5438 1 2 cbr 100 ------- 1 0.0 2.0 24 24
r 1.5508 0 1 cbr 100 ------- 1 0.0 2.0 25 25
+ 1.5508 1 2 cbr 100 ------- 1 0.0 2.0 25 25
- 1.5508 1 2 cbr 100 ------- 1 0.0 2.0 25 25
+ 1.56 0 1 cbr 100 ------- 1 0.0 2.0 28 28
- 1.56 0 1 cbr 100 ------- 1 0.0 2.0 28 28
r 1.5638 1 2 cbr 100 ------- 1 0.0 2.0 25 25
r 1.5708 0 1 cbr 100 ------- 1 0.0 2.0 26 26
+ 1.5708 1 2 cbr 100 ------- 1 0.0 2.0 26 26
- 1.5708 1 2 cbr 100 ------- 1 0.0 2.0 26 26
+ 1.58 0 1 cbr 100 ------- 1 0.0 2.0 29 29
- 1.58 0 1 cbr 100 ------- 1 0.0 2.0 29 29
r 1.5838 1 2 cbr 100 ------- 1 0.0 2.0 26 26
r 1.5908 0 1 cbr 100 ------- 1 0.0 2.0 27 27
+ 1.5908 1 2 cbr 100 ------- 1 0.0 2.0 27 27
- 1.5908 1 2 cbr 100 ------- 1 0.0 2.0 27 27
+ 1.6 0 1 cbr 100 ------- 1 0.0 2.0 30 30
- 1.6 0 1 cbr 100 ------- 1 0.0 2.0 30 30
r 1.6038 1 2 cbr 100 ------- 1 0.0 2.0 27 27
r 1.6108 0 1 cbr 100 ------- 1 0.0 2.0 28 28
+ 1.6108 1 2 cbr 100 ------- 1 0.0 2.0 28 28
- 1.6108 1 2 cbr 100 ------- 1 0.0 2.0 28 28
+ 1.62 0 1 cbr 100 ------- 1 0.0 2.0 31 31
- 1.62 0 1 cbr 100 ------- 1 0.0 2.0 31 31
r 1.6238 1 2 cbr 100 ------- 1 0.0 2.0 28 28
r 1.6308 0 1 cbr 100 ------- 1 0.0 2.0 29 29
+ 1.6308 1 2 cbr 100 ------- 1 0.0 2.0 29 29
- 1.6308 1 2 cbr 100 ------- 1 0.0 2.0 29 29
+ 1.64 0 1 cbr 100 ------- 1 0.0 2.0 32 32
- 1.64 0 1 cbr 100 ------- 1 0.0 2.0 32 32
r 1.6438 1 2 cbr 100 ------- 1 0.0 2.0 29 29
r 1.6508 0 1 cbr 100 ------- 1 0.0 2.0 30 30
+ 1.6508 1 2 cbr 100 ------- 1 0.0 2.0 30 30
- 1.6508 1 2 cbr 100 ------- 1 0.0 2.0 30 30
+ 1.66 0 1 cbr 100 ------- 1 0.0 2.0 33 33
- 1.66 0 1 cbr 100 ------- 1 0.0 2.0 33 33
r 1.6638 1 2 cbr 100 ------- 1 0.0 2.0 30 30
r 1.6708 0 1 cbr 100 ------- 1 0.0 2.0 31 31
+ 1.6708 1 2 cbr 100 ------- 1 0.0 2.0 31 31
- 1.6708 1 2 cbr 100 ------- 1 0.0 2.0 31 31
+ 1.68 0 1 cbr 100 ------- 1 0.0 2.0 34 34
- 1.68 0 1 cbr 100 ------- 1 0.0 2.0 34 34
r 1.6838 1 2 cbr 100 ------- 1 0.0 2.0 31 31
r 1.6908 0 1 cbr 100 ------- 1 0.0 2.0 32 32
+ 1.6908 1 2 cbr 100 ------- 1 0.0 2.0 32 32
- 1.6908 1 2 cbr 100 ------- 1 0.0 2.0 32 32
+ 1.7 0 1 cbr 100 ------- 1 0.0 2.0 35 35
- 1.7 0 1 cbr 100 ------- 1 0.0 2.0 35 35
r 1.7038 1 2 cbr 100 ------- 1 0.0 2.0 32 32
r 1.7108 0 1 cbr 100 ------- 1 0.0 2.0 33 33
+ 1.7108 1 2 cbr 100 ------- 1 0.0 2.0 33 33
- 1.7108 1 2 cbr 100 ------- 1 0.0 2.0 33 33
+ 1.72 0 1 cbr 100 ------- 1 0.0 2.0 36 36
- 1.72 0 1 cbr 100 ------- 1 0.0 2.0 36 36
r 1.7238 1 2 cbr 100 ------- 1 0.0 2.0 33 33
r 1.7308 0 1 cbr 100 ------- 1 0.0 2.0 34 34
+ 1.7308 1 2 cbr 100 ------- 1 0.0 2.0 34 34
- 1.7308 1 2 cbr 100 ------- 1 0.0 2.0 34 34
+ 1.74 0 1 cbr 100 ------- 1 0.0 2.0 37 37
- 1.74 0 1 cbr 100 ------- 1 0.0 2.0 37 37
r 1.7438 1 2 cbr 100 ------- 1 0.0 2.0 34 34
r 1.7508 0 1 cbr 100 ------- 1 0.0 2.0 35 35
+ 1.7508 1 2 cbr 100 ------- 1 0.0 2.0 35 35
- 1.7508 1 2 cbr 100 ------- 1 0.0 2.0 35 35
+ 1.76 0 1 cbr 100 ------- 1 0.0 2.0 38 38
- 1.76 0 1 cbr 100 ------- 1 0.0 2.0 38 38
r 1.7638 1 2 cbr 100 ------- 1 0.0 2.0 35 35
r 1.7708 0 1 cbr 100 ------- 1 0.0 2.0 36 36
+ 1.7708 1 2 cbr 100 ------- 1 0.0 2.0 36 36
- 1.7708 1 2 cbr 100 ------- 1 0.0 2.0 36 36
+ 1.78 0 1 cbr 100 ------- 1 0.0 2.0 39 39
- 1.78 0 1 cbr 100 ------- 1 0.0 2.0 39 39
r 1.7838 1 2 cbr 100 ------- 1 0.0 2.0 36 36
r 1.7908 0 1 cbr 100 ------- 1 0.0 2.0 37 37
+ 1.7908 1 2 cbr 100 ------- 1 0.0 2.0 37 37
- 1.7908 1 2 cbr 100 ------- 1 0.0 2.0 37 37
+ 1.8 0 1 cbr 100 ------- 1 0.0 2.0 40 40
- 1.8 0 1 cbr 100 ------- 1 0.0 2.0 40 40
r 1.8038 1 2 cbr 100 ------- 1 0.0 2.0 37 37
r 1.8108 0 1 cbr 100 ------- 1 0.0 2.0 38 38
+ 1.8108 1 2 cbr 100 ------- 1 0.0 2.0 38 38
- 1.8108 1 2 cbr 100 ------- 1 0.0 2.0 38 38
+ 1.82 0 1 cbr 100 ------- 1 0.0 2.0 41 41
- 1.82 0 1 cbr 100 ------- 1 0.0 2.0 41 41
r 1.8238 1 2 cbr 100 ------- 1 0.0 2.0 38 38
r 1.8308 0 1 cbr 100 ------- 1 0.0 2.0 39 39
+ 1.8308 1 2 cbr 100 ------- 1 0.0 2.0 39 39
- 1.8308 1 2 cbr 100 ------- 1 0.0 2.0 39 39
+ 1.84 0 1 cbr 100 ------- 1 0.0 2.0 42 42
- 1.84 0 1 cbr 100 ------- 1 0.0 2.0 42 42
r 1.8438 1 2 cbr 100 ------- 1 0.0 2.0 39 39
r 1.8508 0 1 cbr 100 ------- 1 0.0 2.0 40 40
+ 1.8508 1 2 cbr 100 ------- 1 0.0 2.0 40 40
- 1.8508 1 2 cbr 100 ------- 1 0.0 2.0 40 40
+ 1.86 0 1 cbr 100 ------- 1 0.0 2.0 43 43
- 1.86 0 1 cbr 100 ------- 1 0.0 2.0 43 43
r 1.8638 1 2 cbr 100 ------- 1 0.0 2.0 40 40
r 1.8708 0 1 cbr 100 ------- 1 0.0 2.0 41 41
+ 1.8708 1 2 cbr 100 ------- 1 0.0 2.0 41 41
- 1.8708 1 2 cbr 100 ------- 1 0.0 2.0 41 41
+ 1.88 0 1 cbr 100 ------- 1 0.0 2.0 44 44
- 1.88 0 1 cbr 100 ------- 1 0.0 2.0 44 44
r 1.8838 1 2 cbr 100 ------- 1 0.0 2.0 41 41
r 1.8908 0 1 cbr 100 ------- 1 0.0 2.0 42 42
+ 1.8908 1 2 cbr 100 ------- 1 0.0 2.0 42 42
- 1.8908 1 2 cbr 100 ------- 1 0.0 2.0 42 42
+ 1.9 0 1 cbr 100 ------- 1 0.0 2.0 45 45
- 1.9 0 1 cbr 100 ------- 1 0.0 2.0 45 45
r 1.9038 1 2 cbr 100 ------- 1 0.0 2.0 42 42
r 1.9108 0 1 cbr 100 ------- 1 0.0 2.0 43 43
+ 1.9108 1 2 cbr 100 ------- 1 0.0 2.0 43 43
- 1.9108 1 2 cbr 100 ------- 1 0.0 2.0 43 43
+ 1.92 0 1 cbr 100 ------- 1 0.0 2.0 46 46
- 1.92 0 1 cbr 100 ------- 1 0.0 2.0 46 46
r 1.9238 1 2 cbr 100 ------- 1 0.0 2.0 43 43
r 1.9308 0 1 cbr 100 ------- 1 0.0 2.0 44 44
+ 1.9308 1 2 cbr 100 ------- 1 0.0 2.0 44 44
- 1.9308 1 2 cbr 100 ------- 1 0.0 2.0 44 44
+ 1.94 0 1 cbr 100 ------- 1 0.0 2.0 47 47
- 1.94 0 1 cbr 100 ------- 1 0.0 2.0 47 47
r 1.9438 1 2 cbr 100 ------- 1 0.0 2.0 44 44
r 1.9508 0 1 cbr 100 ------- 1 0.0 2.0 45 45
+ 1.9508 1 2 cbr 100 ------- 1 0.0 2.0 45 45
- 1.9508 1 2 cbr 100 ------- 1 0.0 2.0 45 45
+ 1.96 0 1 cbr 100 ------- 1 0.0 2.0 48 48
- 1.96 0 1 cbr 100 ------- 1 0.0 2.0 48 48
r 1.9638 1 2 cbr 100 ------- 1 0.0 2.0 45 45
r 1.9708 0 1 cbr 100 ------- 1 0.0 2.0 46 46
+ 1.9708 1 2 cbr 100 ------- 1 0.0 2.0 46 46
- 1.9708 1 2 cbr 100 ------- 1 0.0 2.0 46 46
+ 1.98 0 1 cbr 100 ------- 1 0.0 2.0 49 49
- 1.98 0 1 cbr 100 ------- 1 0.0 2.0 49 49
r 1.9838 1 2 cbr 100 ------- 1 0.0 2.0 46 46
r 1.9908 0 1 cbr 100 ------- 1 0.0 2.0 47 47
+ 1.9908 1 2 cbr 100 ------- 1 0.0 2.0 47 47
- 1.9908 1 2 cbr 100 ------- 1 0.0 2.0 47 47
+ 2 0 1 cbr 100 ------- 1 0.0 2.0 50 50
- 2 0 1 cbr 100 ------- 1 0.0 2.0 50 50
r 2.0038 1 2 cbr 100 ------- 1 0.0 2.0 47 47
r 2.0108 0 1 cbr 100 ------- 1 0.0 2.0 48 48
+ 2.0108 1 2 cbr 100 ------- 1 0.0 2.0 48 48
- 2.0108 1 2 cbr 100 ------- 1 0.0 2.0 48 48
+ 2.02 0 1 cbr 100 ------- 1 0.0 2.0 51 51
- 2.02 0 1 cbr 100 ------- 1 0.0 2.0 51 51
r 2.0238 1 2 cbr 100 ------- 1 0.0 2.0 48 48
r 2.0308 0 1 cbr 100 ------- 1 0.0 2.0 49 49
+ 2.0308 1 2 cbr 100 ------- 1 0.0 2.0 49 49
- 2.0308 1 2 cbr 100 ------- 1 0.0 2.0 49 49
+ 2.04 0 1 cbr 100 ------- 1 0.0 2.0 52 52
- 2.04 0 1 cbr 100 ------- 1 0.0 2.0 52 52
r 2.0438 1 2 cbr 100 ------- 1 0.0 2.0 49 49
r 2.0508 0 1 cbr 100 ------- 1 0.0 2.0 50 50
+ 2.0508 1 2 cbr 100 ------- 1 0.0 2.0 50 50
- 2.0508 1 2 cbr 100 ------- 1 0.0 2.0 50 50
+ 2.06 0 1 cbr 100 ------- 1 0.0 2.0 53 53
- 2.06 0 1 cbr 100 ------- 1 0.0 2.0 53 53
r 2.0638 1 2 cbr 100 ------- 1 0.0 2.0 50 50
r 2.0708 0 1 cbr 100 ------- 1 0.0 2.0 51 51
+ 2.0708 1 2 cbr 100 ------- 1 0.0 2.0 51 51
- 2.0708 1 2 cbr 100 ------- 1 0.0 2.0 51 51
+ 2.08 0 1 cbr 100 ------- 1 0.0 2.0 54 54
- 2.08 0 1 cbr 100 ------- 1 0.0 2.0 54 54
r 2.0838 1 2 cbr 100 ------- 1 0.0 2.0 51 51
r 2.0908 0 1 cbr 100 ------- 1 0.0 2.0 52 52
+ 2.0908 1 2 cbr 100 ------- 1 0.0 2.0 52 52
- 2.0908 1 2 cbr 100 ------- 1 0.0 2.0 52 52
+ 2.1 0 1 cbr 100 ------- 1 0.0 2.0 55 55
- 2.1 0 1 cbr 100 ------- 1 0.0 2.0 55 55
r 2.1038 1 2 cbr 100 ------- 1 0.0 2.0 52 52
r 2.1108 0 1 cbr 100 ------- 1 0.0 2.0 53 53
+ 2.1108 1 2 cbr 100 ------- 1 0.0 2.0 53 53
- 2.1108 1 2 cbr 100 ------- 1 0.0 2.0 53 53
+ 2.12 0 1 cbr 100 ------- 1 0.0 2.0 56 56
- 2.12 0 1 cbr 100 ------- 1 0.0 2.0 56 56
r 2.1238 1 2 cbr 100 ------- 1 0.0 2.0 53 53
r 2.1308 0 1 cbr 100 ------- 1 0.0 2.0 54 54
+ 2.1308 1 2 cbr 100 ------- 1 0.0 2.0 54 54
- 2.1308 1 2 cbr 100 ------- 1 0.0 2.0 54 54
+ 2.14 0 1 cbr 100 ------- 1 0.0 2.0 57 57
- 2.14 0 1 cbr 100 ------- 1 0.0 2.0 57 57
r 2.1438 1 2 cbr 100 ------- 1 0.0 2.0 54 54
r 2.1508 0 1 cbr 100 ------- 1 0.0 2.0 55 55
+ 2.1508 1 2 cbr 100 ------- 1 0.0 2.0 55 55
- 2.1508 1 2 cbr 100 ------- 1 0.0 2.0 55 55
+ 2.16 0 1 cbr 100 ------- 1 0.0 2.0 58 58
- 2.16 0 1 cbr 100 ------- 1 0.0 2.0 58 58
r 2.1638 1 2 cbr 100 ------- 1 0.0 2.0 55 55
r 2.1708 0 1 cbr 100 ------- 1 0.0 2.0 56 56
+ 2.1708 1 2 cbr 100 ------- 1 0.0 2.0 56 56
- 2.1708 1 2 cbr 100 ------- 1 0.0 2.0 56 56
+ 2.18 0 1 cbr 100 ------- 1 0.0 2.0 59 59
- 2.18 0 1 cbr 100 ------- 1 0.0 2.0 59 59
r 2.1838 1 2 cbr 100 ------- 1 0.0 2.0 56 56
r 2.1908 0 1 cbr 100 ------- 1 0.0 2.0 57 57
+ 2.1908 1 2 cbr 100 ------- 1 0.0 2.0 57 57
- 2.1908 1 2 cbr 100 ------- 1 0.0 2.0 57 57
+ 2.2 0 1 cbr 100 ------- 1 0.0 2.0 60 60
- 2.2 0 1 cbr 100 ------- 1 0.0 2.0 60 60
r 2.2038 1 2 cbr 100 ------- 1 0.0 2.0 57 57
r 2.2108 0 1 cbr 100 ------- 1 0.0 2.0 58 58
+ 2.2108 1 2 cbr 100 ------- 1 0.0 2.0 58 58
- 2.2108 1 2 cbr 100 ------- 1 0.0 2.0 58 58
+ 2.22 0 1 cbr 100 ------- 1 0.0 2.0 61 61
- 2.22 0 1 cbr 100 ------- 1 0.0 2.0 61 61
r 2.2238 1 2 cbr 100 ------- 1 0.0 2.0 58 58
r 2.2308 0 1 cbr 100 ------- 1 0.0 2.0 59 59
+ 2.2308 1 2 cbr 100 ------- 1 0.0 2.0 59 59
- 2.2308 1 2 cbr 100 ------- 1 0.0 2.0 59 59
+ 2.24 0 1 cbr 100 ------- 1 0.0 2.0 62 62
- 2.24 0 1 cbr 100 ------- 1 0.0 2.0 62 62
r 2.2438 1 2 cbr 100 ------- 1 0.0 2.0 59 59
r 2.2508 0 1 cbr 100 ------- 1 0.0 2.0 60 60
+ 2.2508 1 2 cbr 100 ------- 1 0.0 2.0 60 60
- 2.2508 1 2 cbr 100 ------- 1 0.0 2.0 60 60
+ 2.26 0 1 cbr 100 ------- 1 0.0 2.0 63 63
- 2.26 0 1 cbr 100 ------- 1 0.0 2.0 63 63
r 2.2638 1 2 cbr 100 ------- 1 0.0 2.0 60 60
r 2.2708 0 1 cbr 100 ------- 1 0.0 2.0 61 61
+ 2.2708 1 2 cbr 100 ------- 1 0.0 2.0 61 61
- 2.2708 1 2 cbr 100 ------- 1 0.0 2.0 61 61
+ 2.28 0 1 cbr 100 ------- 1 0.0 2.0 64 64
- 2.28 0 1 cbr 100 ------- 1 0.0 2.0 64 64
r 2.2838 1 2 cbr 100 ------- 1 0.0 2.0 61 61
r 2.2908 0 1 cbr 100 ------- 1 0.0 2.0 62 62
+ 2.2908 1 2 cbr 100 ------- 1 0.0 2.0 62 62
- 2.2908 1 2 cbr 100 ------- 1 0.0 2.0 62 62
+ 2.3 0 1 cbr 100 ------- 1 0.0 2.0 65 65
- 2.3 0 1 cbr 100 ------- 1 0.0 2.0 65 65
r 2.3038 1 2 cbr 100 ------- 1 0.0 2.0 62 62
r 2.3108 0 1 cbr 100 ------- 1 0.0 2.0 63 63
+ 2.3108 1 2 cbr 100 ------- 1 0.0 2.0 63 63
- 2.3108 1 2 cbr 100 ------- 1 0.0 2.0 63 63
+ 2.32 0 1 cbr 100 ------- 1 0.0 2.0 66 66
- 2.32 0 1 cbr 100 ------- 1 0.0 2.0 66 66
r 2.3238 1 2 cbr 100 ------- 1 0.0 2.0 63 63
r 2.3308 0 1 cbr 100 ------- 1 0.0 2.0 64 64
+ 2.3308 1 2 cbr 100 ------- 1 0.0 2.0 64 64
- 2.3308 1 2 cbr 100 ------- 1 0.0 2.0 64 64
+ 2.34 0 1 cbr 100 ------- 1 0.0 2.0 67 67
- 2.34 0 1 cbr 100 ------- 1 0.0 2.0 67 67
r 2.3438 1 2 cbr 100 ------- 1 0.0 2.0 64 64
r 2.3508 0 1 cbr 100 ------- 1 0.0 2.0 65 65
+ 2.3508 1 2 cbr 100 ------- 1 0.0 2.0 65 65
- 2.3508 1 2 cbr 100 ------- 1 0.0 2.0 65 65
+ 2.36 0 1 cbr 100 ------- 1 0.0 2.0 68 68
- 2.36 0 1 cbr 100 ------- 1 0.0 2.0 68 68
r 2.3638 1 2 cbr 100 ------- 1 0.0 2.0 65 65
r 2.3708 0 1 cbr 100 ------- 1 0.0 2.0 66 66
+ 2.3708 1 2 cbr 100 ------- 1 0.0 2.0 66 66
- 2.3708 1 2 cbr 100 ------- 1 0.0 2.0 66 66
+ 2.38 0 1 cbr 100 ------- 1 0.0 2.0 69 69
- 2.38 0 1 cbr 100 ------- 1 0.0 2.0 69 69
r 2.3838 1 2 cbr 100 ------- 1 0.0 2.0 66 66
r 2.3908 0 1 cbr 100 ------- 1 0.0 2.0 67 67
+ 2.3908 1 2 cbr 100 ------- 1 0.0 2.0 67 67
- 2.3908 1 2 cbr 100 ------- 1 0.0 2.0 67 67
+ 2.4 0 1 cbr 100 ------- 1 0.0 2.0 70 70
- 2.4 0 1 cbr 100 ------- 1 0.0 2.0 70 70
r 2.4038 1 2 cbr 100 ------- 1 0.0 2.0 67 67
r 2.4108 0 1 cbr 100 ------- 1 0.0 2.0 68 68
+ 2.4108 1 2 cbr 100 ------- 1 0.0 2.0 68 68
- 2.4108 1 2 cbr 100 ------- 1 0.0 2.0 68 68
+ 2.42 0 1 cbr 100 ------- 1 0.0 2.0 71 71
- 2.42 0 1 cbr 100 ------- 1 0.0 2.0 71 71
r 2.4238 1 2 cbr 100 ------- 1 0.0 2.0 68 68
r 2.4308 0 1 cbr 100 ------- 1 0.0 2.0 69 69
+ 2.4308 1 2 cbr 100 ------- 1 0.0 2.0 69 69
- 2.4308 1 2 cbr 100 ------- 1 0.0 2.0 69 69
+ 2.44 0 1 cbr 100 ------- 1 0.0 2.0 72 72
- 2.44 0 1 cbr 100 ------- 1 0.0 2.0 72 72
r 2.4438 1 2 cbr 100 ------- 1 0.0 2.0 69 69
r 2.4508 0 1 cbr 100 ------- 1 0.0 2.0 70 70
+ 2.4508 1 2 cbr 100 ------- 1 0.0 2.0 70 70
- 2.4508 1 2 cbr 100 ------- 1 0.0 2.0 70 70
+ 2.46 0 1 cbr 100 ------- 1 0.0 2.0 73 73
- 2.46 0 1 cbr 100 ------- 1 0.0 2.0 73 73
r 2.4638 1 2 cbr 100 ------- 1 0.0 2.0 70 70
r 2.4708 0 1 cbr 100 ------- 1 0.0 2.0 71 71
+ 2.4708 1 2 cbr 100 ------- 1 0.0 2.0 71 71
- 2.4708 1 2 cbr 100 ------- 1 0.0 2.0 71 71
+ 2.48 0 1 cbr 100 ------- 1 0.0 2.0 74 74
- 2.48 0 1 cbr 100 ------- 1 0.0 2.0 74 74
r 2.4838 1 2 cbr 100 ------- 1 0.0 2.0 71 71
r 2.4908 0 1 cbr 100 ------- 1 0.0 2.0 72 72
+ 2.4908 1 2 cbr 100 ------- 1 0.0 2.0 72 72
- 2.4908 1 2 cbr 100 ------- 1 0.0 2.0 72 72
+ 2.5 0 1 cbr 100 ------- 1 0.0 2.0 75 75
- 2.5 0 1 cbr 100 ------- 1 0.0 2.0 75 75
r 2.5038 1 2 cbr 100 ------- 1 0.0 2.0 72 72
r 2.5108 0 1 cbr 100 ------- 1 0.0 2.0 73 73
+ 2.5108 1 2 cbr 100 ------- 1 0.0 2.0 73 73
- 2.5108 1 2 cbr 100 ------- 1 0.0 2.0 73 73
+ 2.52 0 1 cbr 100 ------- 1 0.0 2.0 76 76
- 2.52 0 1 cbr 100 ------- 1 0.0 2.0 76 76
r 2.5238 1 2 cbr 100 ------- 1 0.0 2.0 73 73
r 2.5308 0 1 cbr 100 ------- 1 0.0 2.0 74 74
+ 2.5308 1 2 cbr 100 ------- 1 0.0 2.0 74 74
- 2.5308 1 2 cbr 100 ------- 1 0.0 2.0 74 74
+ 2.54 0 1 cbr 100 ------- 1 0.0 2.0 77 77
- 2.54 0 1 cbr 100 ------- 1 0.0 2.0 77 77
r 2.5438 1 2 cbr 100 ------- 1 0.0 2.0 74 74
r 2.5508 0 1 cbr 100 ------- 1 0.0 2.0 75 75
+ 2.5508 1 2 cbr 100 ------- 1 0.0 2.0 75 75
- 2.5508 1 2 cbr 100 ------- 1 0.0 2.0 75 75
+ 2.56 0 1 cbr 100 ------- 1 0.0 2.0 78 78
- 2.56 0 1 cbr 100 ------- 1 0.0 2.0 78 78
r 2.5638 1 2 cbr 100 ------- 1 0.0 2.0 75 75
r 2.5708 0 1 cbr 100 ------- 1 0.0 2.0 76 76
+ 2.5708 1 2 cbr 100 ------- 1 0.0 2.0 76 76
- 2.5708 1 2 cbr 100 ------- 1 0.0 2.0 76 76
+ 2.58 0 1 cbr 100 ------- 1 0.0 2.0 79 79
- 2.58 0 1 cbr 100 ------- 1 0.0 2.0 79 79
r 2.5838 1 2 cbr 100 ------- 1 0.0 2.0 76 76
r 2.5908 0 1 cbr 100 ------- 1 0.0 2.0 77 77
+ 2.5908 1 2 cbr 100 ------- 1 0.0 2.0 77 77
- 2.5908 1 2 cbr 100 ------- 1 0.0 2.0 77 77
+ 2.6 0 1 cbr 100 ------- 1 0.0 2.0 80 80
- 2.6 0 1 cbr 100 ------- 1 0.0 2.0 80 80
r 2.6038 1 2 cbr 100 ------- 1 0.0 2.0 77 77
r 2.6108 0 1 cbr 100 ------- 1 0.0 2.0 78 78
+ 2.6108 1 2 cbr 100 ------- 1 0.0 2.0 78 78
- 2.6108 1 2 cbr 100 ------- 1 0.0 2.0 78 78
+ 2.62 0 1 cbr 100 ------- 1 0.0 2.0 81 81
- 2.62 0 1 cbr 100 ------- 1 0.0 2.0 81 81
r 2.6238 1 2 cbr 100 ------- 1 0.0 2.0 78 78
r 2.6308 0 1 cbr 100 ------- 1 0.0 2.0 79 79
+ 2.6308 1 2 cbr 100 ------- 1 0.0 2.0 79 79
- 2.6308 1 2 cbr 100 ------- 1 0.0 2.0 79 79
+ 2.64 0 1 cbr 100 ------- 1 0.0 2.0 82 82
- 2.64 0 1 cbr 100 ------- 1 0.0 2.0 82 82
r 2.6438 1 2 cbr 100 ------- 1 0.0 2.0 79 79
r 2.6508 0 1 cbr 100 ------- 1 0.0 2.0 80 80
+ 2.6508 1 2 cbr 100 ------- 1 0.0 2.0 80 80
- 2.6508 1 2 cbr 100 ------- 1 0.0 2.0 80 80
+ 2.66 0 1 cbr 100 ------- 1 0.0 2.0 83 83
- 2.66 0 1 cbr 100 ------- 1 0.0 2.0 83 83
r 2.6638 1 2 cbr 100 ------- 1 0.0 2.0 80 80
r 2.6708 0 1 cbr 100 ------- 1 0.0 2.0 81 81
+ 2.6708 1 2 cbr 100 ------- 1 0.0 2.0 81 81
- 2.6708 1 2 cbr 100 ------- 1 0.0 2.0 81 81
+ 2.68 0 1 cbr 100 ------- 1 0.0 2.0 84 84
- 2.68 0 1 cbr 100 ------- 1 0.0 2.0 84 84
r 2.6838 1 2 cbr 100 ------- 1 0.0 2.0 81 81
r 2.6908 0 1 cbr 100 ------- 1 0.0 2.0 82 82
+ 2.6908 1 2 cbr 100 ------- 1 0.0 2.0 82 82
- 2.6908 1 2 cbr 100 ------- 1 0.0 2.0 82 82
+ 2.7 0 1 cbr 100 ------- 1 0.0 2.0 85 85
- 2.7 0 1 cbr 100 ------- 1 0.0 2.0 85 85
r 2.7038 1 2 cbr 100 ------- 1 0.0 2.0 82 82
r 2.7108 0 1 cbr 100 ------- 1 0.0 2.0 83 83
+ 2.7108 1 2 cbr 100 ------- 1 0.0 2.0 83 83
- 2.7108 1 2 cbr 100 ------- 1 0.0 2.0 83 83
+ 2.72 0 1 cbr 100 ------- 1 0.0 2.0 86 86
- 2.72 0 1 cbr 100 ------- 1 0.0 2.0 86 86
r 2.7238 1 2 cbr 100 ------- 1 0.0 2.0 83 83
r 2.7308 0 1 cbr 100 ------- 1 0.0 2.0 84 84
+ 2.7308 1 2 cbr 100 ------- 1 0.0 2.0 84 84
- 2.7308 1 2 cbr 100 ------- 1 0.0 2.0 84 84
+ 2.74 0 1 cbr 100 ------- 1 0.0 2.0 87 87
- 2.74 0 1 cbr 100 ------- 1 0.0 2.0 87 87
r 2.7438 1 2 cbr 100 ------- 1 0.0 2.0 84 84
r 2.7508 0 1 cbr 100 ------- 1 0.0 2.0 85 85
+ 2.7508 1 2 cbr 100 ------- 1 0.0 2.0 85 85
- 2.7508 1 2 cbr 100 ------- 1 0.0 2.0 85 85
+ 2.76 0 1 cbr 100 ------- 1 0.0 2.0 88 88
- 2.76 0 1 cbr 100 ------- 1 0.0 2.0 88 88
r 2.7638 1 2 cbr 100 ------- 1 0.0 2.0 85 85
r 2.7708 0 1 cbr 100 ------- 1 0.0 2.0 86 86
+ 2.7708 1 2 cbr 100 ------- 1 0.0 2.0 86 86
- 2.7708 1 2 cbr 100 ------- 1 0.0 2.0 86 86
+ 2.78 0 1 cbr 100 ------- 1 0.0 2.0 89 89
- 2.78 0 1 cbr 100 ------- 1 0.0 2.0 89 89
r 2.7838 1 2 cbr 100 ------- 1 0.0 2.0 86 86
r 2.7908 0 1 cbr 100 ------- 1 0.0 2.0 87 87
+ 2.7908 1 2 cbr 100 ------- 1 0.0 2.0 87 87
- 2.7908 1 2 cbr 100 ------- 1 0.0 2.0 87 87
+ 2.8 0 1 cbr 100 ------- 1 0.0 2.0 90 90
- 2.8 0 1 cbr 100 ------- 1 0.0 2.0 90 90
r 2.8038 1 2 cbr 100 ------- 1 0.0 2.0 87 87
r 2.8108 0 1 cbr 100 ------- 1 0.0 2.0 88 88
+ 2.8108 1 2 cbr 100 ------- 1 0.0 2.0 88 88
- 2.8108 1 2 cbr 100 ------- 1 0.0 2.0 88 88
+ 2.82 0 1 cbr 100 ------- 1 0.0 2.0 91 91
- 2.82 0 1 cbr 100 ------- 1 0.0 2.0 91 91
r 2.8238 1 2 cbr 100 ------- 1 0.0 2.0 88 88
r 2.8308 0 1 cbr 100 ------- 1 0.0 2.0 89 89
+ 2.8308 1 2 cbr 100 ------- 1 0.0 2.0 89 89
- 2.8308 1 2 cbr 100 ------- 1 0.0 2.0 89 89
+ 2.84 0 1 cbr 100 ------- 1 0.0 2.0 92 92
- 2.84 0 1 cbr 100 ------- 1 0.0 2.0 92 92
r 2.8438 1 2 cbr 100 ------- 1 0.0 2.0 89 89
r 2.8508 0 1 cbr 100 ------- 1 0.0 2.0 90 90
+ 2.8508 1 2 cbr 100 ------- 1 0.0 2.0 90 90
- 2.8508 1 2 cbr 100 ------- 1 0.0 2.0 90 90
+ 2.86 0 1 cbr 100 ------- 1 0.0 2.0 93 93
- 2.86 0 1 cbr 100 ------- 1 0.0 2.0 93 93
r 2.8638 1 2 cbr 100 ------- 1 0.0 2.0 90 90
r 2.8708 0 1 cbr 100 ------- 1 0.0 2.0 91 91
+ 2.8708 1 2 cbr 100 ------- 1 0.0 2.0 91 91
- 2.8708 1 2 cbr 100 ------- 1 0.0 2.0 91 91
+ 2.88 0 1 cbr 100 ------- 1 0.0 2.0 94 94
- 2.88 0 1 cbr 100 ------- 1 0.0 2.0 94 94
r 2.8838 1 2 cbr 100 ------- 1 0.0 2.0 91 91
r 2.8908 0 1 cbr 100 ------- 1 0.0 2.0 92 92
+ 2.8908 1 2 cbr 100 ------- 1 0.0 2.0 92 92
- 2.8908 1 2 cbr 100 ------- 1 0.0 2.0 92 92
+ 2.9 0 1 cbr 100 ------- 1 0.0 2.0 95 95
- 2.9 0 1 cbr 100 ------- 1 0.0 2.0 95 95
r 2.9038 1 2 cbr 100 ------- 1 0.0 2.0 92 92
r 2.9108 0 1 cbr 100 ------- 1 0.0 2.0 93 93
+ 2.9108 1 2 cbr 100 ------- 1 0.0 2.0 93 93
- 2.9108 1 2 cbr 100 ------- 1 0.0 2.0 93 93
+ 2.92 0 1 cbr 100 ------- 1 0.0 2.0 96 96
- 2.92 0 1 cbr 100 ------- 1 0.0 2.0 96 96
r 2.9238 1 2 cbr 100 ------- 1 0.0 2.0 93 93
r 2.9308 0 1 cbr 100 ------- 1 0.0 2.0 94 94
+ 2.9308 1 2 cbr 100 ------- 1 0.0 2.0 94 94
- 2.9308 1 2 cbr 100 ------- 1 0.0 2.0 94 94
+ 2.94 0 1 cbr 100 ------- 1 0.0 2.0 97 97
- 2.94 0 1 cbr 100 ------- 1 0.0 2.0 97 97
r 2.9438 1 2 cbr 100 ------- 1 0.0 2.0 94 94
r 2.9508 0 1 cbr 100 ------- 1 0.0 2.0 95 95
+ 2.9508 1 2 cbr 100 ------- 1 0.0 2.0 95 95
- 2.9508 1 2 cbr 100 ------- 1 0.0 2.0 95 95
+ 2.96 0 1 cbr 100 ------- 1 0.0 2.0 98 98
- 2.96 0 1 cbr 100 ------- 1 0.0 2.0 98 98
r 2.9638 1 2 cbr 100 ------- 1 0.0 2.0 95 95
r 2.9708 0 1 cbr 100 ------- 1 0.0 2.0 96 96
+ 2.9708 1 2 cbr 100 ------- 1 0.0 2.0 96 96
- 2.9708 1 2 cbr 100 ------- 1 0.0 2.0 96 96
+ 2.98 0 1 cbr 100 ------- 1 0.0 2.0 99 99
- 2.98 0 1 cbr 100 ------- 1 0.0 2.0 99 99
r 2.9838 1 2 cbr 100 ------- 1 0.0 2.0 96 96
r 2.9908 0 1 cbr 100 ------- 1 0.0 2.0 97 97
+ 2.9908 1 2 cbr 100 ------- 1 0.0 2.0 97 97
- 2.9908 1 2 cbr 100 ------- 1 0.0 2.0 97 97
+ 3 0 1 cbr 100 ------- 1 0.0 2.0 100 100
- 3 0 1 cbr 100 ------- 1 0.0 2.0 100 100
r 3.0038 1 2 cbr 100 ------- 1 0.0 2.0 97 97
r 3.0108 0 1 cbr 100 ------- 1 0.0 2.0 98 98
+ 3.0108 1 2 cbr 100 ------- 1 0.0 2.0 98 98
- 3.0108 1 2 cbr 100 ------- 1 0.0 2.0 98 98
+ 3.02 0 1 cbr 100 ------- 1 0.0 2.0 101 101
- 3.02 0 1 cbr 100 ------- 1 0.0 2.0 101 101
r 3.0238 1 2 cbr 100 ------- 1 0.0 2.0 98 98
r 3.0308 0 1 cbr 100 ------- 1 0.0 2.0 99 99
+ 3.0308 1 2 cbr 100 ------- 1 0.0 2.0 99 99
- 3.0308 1 2 cbr 100 ------- 1 0.0 2.0 99 99
+ 3.04 0 1 cbr 100 ------- 1 0.0 2.0 102 102
- 3.04 0 1 cbr 100 ------- 1 0.0 2.0 102 102
r 3.0438 1 2 cbr 100 ------- 1 0.0 2.0 99 99
r 3.0508 0 1 cbr 100 ------- 1 0.0 2.0 100 100
+ 3.0508 1 2 cbr 100 ------- 1 0.0 2.0 100 100
- 3.0508 1 2 cbr 100 ------- 1 0.0 2.0 100 100
+ 3.06 0 1 cbr 100 ------- 1 0.0 2.0 103 103
- 3.06 0 1 cbr 100 ------- 1 0.0 2.0 103 103
r 3.0638 1 2 cbr 100 ------- 1 0.0 2.0 100 100
r 3.0708 0 1 cbr 100 ------- 1 0.0 2.0 101 101
+ 3.0708 1 2 cbr 100 ------- 1 0.0 2.0 101 101
- 3.0708 1 2 cbr 100 ------- 1 0.0 2.0 101 101
+ 3.08 0 1 cbr 100 ------- 1 0.0 2.0 104 104
- 3.08 0 1 cbr 100 ------- 1 0.0 2.0 104 104
r 3.0838 1 2 cbr 100 ------- 1 0.0 2.0 101 101
r 3.0908 0 1 cbr 100 ------- 1 0.0 2.0 102 102
+ 3.0908 1 2 cbr 100 ------- 1 0.0 2.0 102 102
- 3.0908 1 2 cbr 100 ------- 1 0.0 2.0 102 102
+ 3.1 0 1 cbr 100 ------- 1 0.0 2.0 105 105
- 3.1 0 1 cbr 100 ------- 1 0.0 2.0 105 105
r 3.1038 1 2 cbr 100 ------- 1 0.0 2.0 102 102
r 3.1108 0 1 cbr 100 ------- 1 0.0 2.0 103 103
+ 3.1108 1 2 cbr 100 ------- 1 0.0 2.0 103 103
- 3.1108 1 2 cbr 100 ------- 1 0.0 2.0 103 103
+ 3.12 0 1 cbr 100 ------- 1 0.0 2.0 106 106
- 3.12 0 1 cbr 100 ------- 1 0.0 2.0 106 106
r 3.1238 1 2 cbr 100 ------- 1 0.0 2.0 103 103
r 3.1308 0 1 cbr 100 ------- 1 0.0 2.0 104 104
+ 3.1308 1 2 cbr 100 ------- 1 0.0 2.0 104 104
- 3.1308 1 2 cbr 100 ------- 1 0.0 2.0 104 104
+ 3.14 0 1 cbr 100 ------- 1 0.0 2.0 107 107
- 3.14 0 1 cbr 100 ------- 1 0.0 2.0 107 107
r 3.1438 1 2 cbr 100 ------- 1 0.0 2.0 104 104
r 3.1508 0 1 cbr 100 ------- 1 0.0 2.0 105 105
+ 3.1508 1 2 cbr 100 ------- 1 0.0 2.0 105 105
- 3.1508 1 2 cbr 100 ------- 1 0.0 2.0 105 105
+ 3.16 0 1 cbr 100 ------- 1 0.0 2.0 108 108
- 3.16 0 1 cbr 100 ------- 1 0.0 2.0 108 108
r 3.1638 1 2 cbr 100 ------- 1 0.0 2.0 105 105
r 3.1708 0 1 cbr 100 ------- 1 0.0 2.0 106 106
+ 3.1708 1 2 cbr 100 ------- 1 0.0 2.0 106 106
- 3.1708 1 2 cbr 100 ------- 1 0.0 2.0 106 106
+ 3.18 0 1 cbr 100 ------- 1 0.0 2.0 109 109
- 3.18 0 1 cbr 100 ------- 1 0.0 2.0 109 109
r 3.1838 1 2 cbr 100 ------- 1 0.0 2.0 106 106
r 3.1908 0 1 cbr 100 ------- 1 0.0 2.0 107 107
+ 3.1908 1 2 cbr 100 ------- 1 0.0 2.0 107 107
- 3.1908 1 2 cbr 100 ------- 1 0.0 2.0 107 107
+ 3.2 0 1 cbr 100 ------- 1 0.0 2.0 110 110
- 3.2 0 1 cbr 100 ------- 1 0.0 2.0 110 110
r 3.2038 1 2 cbr 100 ------- 1 0.0 2.0 107 107
r 3.2108 0 1 cbr 100 ------- 1 0.0 2.0 108 108
+ 3.2108 1 2 cbr 100 ------- 1 0.0 2.0 108 108
- 3.2108 1 2 cbr 100 ------- 1 0.0 2.0 108 108
+ 3.22 0 1 cbr 100 ------- 1 0.0 2.0 111 111
- 3.22 0 1 cbr 100 ------- 1 0.0 2.0 111 111
r 3.2238 1 2 cbr 100 ------- 1 0.0 2.0 108 108
r 3.2308 0 1 cbr 100 ------- 1 0.0 2.0 109 109
+ 3.2308 1 2 cbr 100 ------- 1 0.0 2.0 109 109
- 3.2308 1 2 cbr 100 ------- 1 0.0 2.0 109 109
+ 3.24 0 1 cbr 100 ------- 1 0.0 2.0 112 112
- 3.24 0 1 cbr 100 ------- 1 0.0 2.0 112 112
r 3.2438 1 2 cbr 100 ------- 1 0.0 2.0 109 109
r 3.2508 0 1 cbr 100 ------- 1 0.0 2.0 110 110
+ 3.2508 1 2 cbr 100 ------- 1 0.0 2.0 110 110
- 3.2508 1 2 cbr 100 ------- 1 0.0 2.0 110 110
+ 3.26 0 1 cbr 100 ------- 1 0.0 2.0 113 113
- 3.26 0 1 cbr 100 ------- 1 0.0 2.0 113 113
r 3.2638 1 2 cbr 100 ------- 1 0.0 2.0 110 110
r 3.2708 0 1 cbr 100 ------- 1 0.0 2.0 111 111
+ 3.2708 1 2 cbr 100 ------- 1 0.0 2.0 111 111
- 3.2708 1 2 cbr 100 ------- 1 0.0 2.0 111 111
+ 3.28 0 1 cbr 100 ------- 1 0.0 2.0 114 114
- 3.28 0 1 cbr 100 ------- 1 0.0 2.0 114 114